     108
 i =        2, E =      -449.0155512357
  C         0.4862156762        2.4234665924        3.5700245226
  C         4.6026937986        8.0965342698        7.2224404723
  C         2.0583463397        7.6835855279        1.8262992066
  C         3.0305628821        2.8364149928        8.9661660647
  C        -0.8366853375        2.0885574150        4.1977918352
  C         5.9255945626        8.4314435867        6.5946731280
  C         3.3811763960        7.3485475122        1.1984230978
  C         1.7077333412        3.1714531176        9.5940426109
  C         1.3799740955        3.3048339893        4.2487951594
  C         3.7089354701        7.2151665305        6.5436705519
  C         1.1644803561        8.5648481661        1.1474984542
  C         3.9244291342        1.9551529356        9.6449667830
  C         7.2160283618        1.2860211787        3.4280468192
  C        -2.1271185755        9.2339782978        7.3644189442
  C         4.2922280480        6.5460782574        1.9682605214
  C         0.7966810220        3.9739217511        8.8242049370
  C         0.9134341590        1.9037405890        2.3195282738
  C         4.1754751338        8.6162595933        8.4729374389
  C         1.6309715019        7.1637325515        3.0766911549
  C         3.4579385733        3.3562689252        7.7157743973
  C         2.6327134223        3.6314985679        3.6968275099
  C         2.4561956848        6.8885027361        7.0956371092
  C        -0.0883442799        8.8913998251        1.6993641208
  C         5.1772532019        1.6286002037        9.0931009111
  C         6.0317042631        0.9379354897        4.0637190611
  C        -0.9427949641        9.5820652492        6.7287459900
  C         5.4764589895        6.1980134559        1.3324367311
  C        -0.3875493543        4.3219874861        9.4600288856
  C         3.0223120806        3.0863850019        2.4754458287
  C         2.0665979289        7.4336151998        8.3170197412
  C        -0.4781408130        8.3462408397        2.9206679355
  C         5.5670501809        2.1737599793        7.8717979876
  C         5.0464041080       10.3263727142        2.1418806717
  C         0.0425050510        0.1936277162        8.6505845783
  C         6.4617167387        5.0663925977        3.2542700416
  C        -1.3728072933        5.4536076616        7.5381955292
  C         2.1584228476        2.2319972697        1.7741516639
  C         2.9304860929        8.2880038643        9.0183136528
  C         0.3859054505        7.4919806604        3.6219463321
  C         4.7030036921        3.0280193230        7.1705186614
  C         3.8306033726       10.4561911341        4.3347311333
  C         1.2583056308        0.0638090331        6.4577343982
  C         7.6775679523        5.1962496711        1.0615552900
  C        -2.5886588022        5.3237506340        9.7309101236
  O        -1.1054575085        2.4940736229        5.3859110492
  O         6.1943668852        8.0259253239        5.4065544057
  O         3.6499456081        7.7540789029        0.0103039576
  O         1.4389655890        2.7659205201       10.7821619292
  O         1.1031246632        3.9039465336        5.4377019538
  O         3.9857850065        6.6160542149        5.3547640643
  O        -2.4336319785        9.1639195085       10.7510157133
  O         7.5225420186        1.3560815463        0.0414495710
  H         0.2286098667        3.5472346889        5.7126405796
  H         4.8602997392        6.9727657498        5.0798245322
  H        -1.5591113832        8.8072437084       10.4760394717
  H         6.6480207871        1.7127563027        0.3164254031
  H         7.4385654348        0.9858003299        2.4344210209
  H        -2.3496556717        9.5341998344        8.3580445339
  H         4.0696630324        6.2457965008        2.9618602937
  H         1.0192459691        4.2742039475        7.8306053230
  H         0.2767824025        1.2505592919        1.7754985098
  H         4.8121272028        9.2694407472        9.0169668783
  H         2.2676675083        6.5105962477        3.6207435309
  H         2.8212416405        4.0094043117        7.1717221128
  H         3.2765607056        4.2720853274        4.2468288696
  H         1.8123486111        6.2479149146        6.5456364217
  H         8.2317552030        9.5321046061        1.1493711520
  H        -3.1428457370        0.9878957092        9.6430938575
  H         5.8996518573        1.2470267124        5.0738892266
  H        -0.8107423451        9.2729732028        5.7185759678
  H         5.6085888106        6.5070393952        0.3222684530
  H        -0.5196800235        4.0129606199       10.4701969017
  H         3.9686918347        3.3471856553        2.0666674395
  H         1.1202182064        7.1728145584        8.7257980035
  H         7.5394181316        8.6072946900        3.3296235986
  H        -2.4505093192        1.9127051378        7.4628415943
  H         5.4370730734        0.5980789678        1.5277337074
  H        -0.3481633637        9.9219208934        9.2647315758
  H         6.0711994750        5.8581064107        3.8685078656
  H        -0.9822898468        4.6618936792        6.9239577218
  H         4.0400396514       10.1040018966        1.8461317564
  H         1.0488693943        0.4159984824        8.9463338184
  H         7.4680873498        4.8440227334        3.5500361175
  H        -2.3791778737        5.6759772141        7.2424289988
  H         5.6374353437        9.4293606745        2.0726285403
  H        -0.5485265746        1.0906396430        8.7198372023
  H         5.8708275723        4.1693050325        3.3236138102
  H        -0.7819187356        6.3506955003        7.4688514024
  H         2.4600728594        1.8430725985        0.8325597027
  H         2.6288367558        8.6769272089        9.9599064766
  H         0.0844012698        7.1030995734        4.5636044344
  H         5.0045082572        3.4169007105        6.2288608105
  H         3.9868401268        0.3293163154        5.3220928181
  H         1.1020693718       10.1906836525        5.4703727248
  H         7.5214014431        5.5893059006        0.0741559847
  H        -2.4324924564        4.9306941896       10.7183094232
  H         3.7273296921        9.3875306295        4.3628130049
  H         1.3615804454        1.1324695046        6.4296525972
  H         7.7809180412        4.1275985704        1.0334540687
  H        -2.6920092883        6.3924016718        9.7590114760
  H         2.9761061507        0.3924941278        3.8675750402
  H         2.1128028440       10.1275060113        6.9248903573
  H        -0.4316233417        5.6524524627        1.5286530223
  H         5.5205323486        4.8675484190        9.2638119383
  N         5.0045911020        0.2750153872        3.5244384995
  N         0.0843186357       10.2449846903        7.2680269029
  N         6.5033125307        5.5347706577        1.8716060321
  N        -1.4144032811        4.9852301012        8.9208592733
     108
 i =        3, E =      -449.0670608383
  C         0.5068677620        2.4421936337        3.5743979418
  C         4.5820412367        8.0778070679        7.2180676172
  C         2.0375864228        7.7022207092        1.8218405117
  C         3.0513239088        2.8177810728        8.9706253709
  C        -0.8019394518        2.0726598507        4.1977177331
  C         5.8908493844        8.4473386855        6.5947489815
  C         3.3465218259        7.3328547947        1.1986143442
  C         1.7423877147        3.1871445908        9.5938506032
  C         1.3974006519        3.3282503785        4.2606403685
  C         3.6915082898        7.1917512674        6.5318242490
  C         1.1470131624        8.5883186778        1.1356764450
  C         3.9418961283        1.9316813906        9.6567882773
  C         7.2130313802        1.2980281062        3.4451927629
  C        -2.1241223031        9.2219729766        7.3472721267
  C         4.2952818591        6.5580654394        1.9510373886
  C         0.7936277162        3.9619352599        8.8414288093
  C         0.9149162689        1.8965770415        2.3214010335
  C         4.1739929174        8.6234244580        8.4710643520
  C         1.6294931246        7.1566878583        3.0748600013
  C         3.4594158940        3.3633121010        7.7176045747
  C         2.6592840589        3.6248595017        3.7027057847
  C         2.4296259916        6.8951400933        7.0897602401
  C        -0.1150542556        8.8846973660        1.6933681889
  C         5.2039641115        1.6353039588        9.0990972586
  C         6.0227384036        0.9431081830        4.0710898502
  C        -0.9338284053        9.5768910804        6.7213756969
  C         5.4855053695        6.2029734084        1.3251024972
  C        -0.3965964407        4.3170261369        9.4673630700
  C         3.0343852982        3.0956373216        2.4602154260
  C         2.0545233800        7.4243643535        8.3322493352
  C        -0.4901167877        8.3555596617        2.9359162112
  C         5.5790254820        2.1644395697        7.8565481406
  C         5.0378644932       10.3196256941        2.1438430008
  C         0.0510447638        0.2003743953        8.6486223807
  C         6.4701839726        5.0595566701        3.2523018433
  C        -1.3812747031        5.4604435481        7.5401637368
  C         2.1627847066        2.2234146704        1.7664701930
  C         2.9261254369        8.2965843981        9.0259958985
  C         0.3814589657        7.4832623403        3.6296097616
  C         4.7074508755        3.0367393202        7.1628560229
  C         3.8194871190       10.4578377510        4.3268297702
  C         1.2694223613        0.0621623062        6.4656357734
  C         7.6887650439        5.1978109999        1.0693336376
  C        -2.5998559700        5.3221894003        9.7231315577
  O        -1.0783279926        2.5385661734        5.3671451995
  O         6.1672373596        7.9814357699        5.4253200116
  O         3.6228494996        7.7985245124        0.0290851367
  O         1.4660615083        2.7214764745       10.7633808722
  O         1.0878848568        3.8842589380        5.4684682372
  O         4.0010247863        6.6357430520        5.3239966536
  O        -2.4184775098        9.1441988111       10.7202192620
  O         7.5073881537        1.3758037714        0.0722467721
  H         0.1892414321        3.5211926951        5.7139080577
  H         4.8996689891        6.9988081022        5.0785574506
  H        -1.5197926327        8.7812182604       10.4748000167
  H         6.6087019168        1.7387821811        0.3176647967
  H         7.4467351137        0.9877437428        2.4324645337
  H        -2.3578256191        9.5322561653        8.3600007559
  H         4.0614904781        6.2477709628        2.9637406193
  H         1.0274187480        4.2722290291        7.8287252917
  H         0.2615545834        1.2242266392        1.7712400529
  H         4.8273551968        9.2957738344        9.0212257741
  H         2.2828289024        6.4842991934        3.6250256784
  H         2.8060805124        4.0357016838        7.1674396146
  H         3.2934035722        4.2998442180        4.2727775106
  H         1.7955059331        6.2201563310        6.5196877890
  H         8.2148415039        9.5599063999        1.1233333216
  H        -3.1259323177        0.9600937051        9.6691316859
  H         5.8918784604        1.2423341479        5.1097694942
  H        -0.8029688195        9.2776661412        5.6826956406
  H         5.6163483524        6.5023255035        0.2864657195
  H        -0.5274394810        4.0176746836       10.5060000833
  H         4.0079968324        3.3362363793        2.0390450524
  H         1.0809127183        7.1837635302        8.7534206403
  H         7.5001458461        8.5962381666        3.3571985978
  H        -2.4112365817        1.9237619867        7.4352665741
  H         5.4366236734        0.6031148014        1.5099058536
  H        -0.3477141070        9.9168849674        9.2825595126
  H         6.0716010033        5.8631543688        3.8862231985
  H        -0.9826914023        4.6568459015        6.9062423565
  H         4.0135202492       10.1004383136        1.8231497588
  H         1.0753889300        0.4195618851        8.9693156987
  H         7.4945884411        4.8404674090        3.5728873660
  H        -2.4056790933        5.6795326528        7.2195778345
  H         5.6511606424        9.4074238382        2.0652441172
  H        -0.5622517150        1.1125761126        8.7272212466
  H         5.8570010151        4.1473204738        3.3311232942
  H        -0.7680921604        6.3726798867        7.4613419867
  H         2.4566076103        1.8081600321        0.8044904660
  H         2.6323018062        8.7118398079        9.9879750931
  H         0.0878514483        7.0681585887        4.5917222787
  H         5.0010580417        3.4518418259        6.2007428694
  H         3.9756183216        0.3181963337        5.3432037331
  H         1.1132909281       10.2018037809        5.4492618477
  H         7.5326257894        5.5782010273        0.0529632729
  H        -2.4437168708        4.9417992297       10.7395019278
  H         3.7151275193        9.3663969346        4.3750596206
  H         1.3737821604        1.1536031370        6.4174059023
  H         7.7931954805        4.1063728578        1.0211655509
  H        -2.7042865654        6.4136275035        9.7712999322
  H         2.9365157580        0.4069041434        3.8662913166
  H         2.1523935967       10.1130957582        6.9261742810
  H        -0.3921436467        5.6669063232        1.5301028143
  H         5.4810527832        4.8530940006        9.2623621790
  N         5.0039046993        0.2615993916        3.5316183628
  N         0.0850043503       10.2584017625        7.2608466375
  N         6.5043496983        5.5215126607        1.8645093114
  N        -1.4154400756        4.9984883389        8.9279564064
     108
 i =        4, E =      -449.0766680915
  C         0.5193818564        2.4233483079        3.5863103202
  C         4.5695280741        8.0966519287        7.2061552331
  C         2.0252922647        7.6837755463        1.8101698564
  C         3.0636154295        2.8362216748        8.9822936176
  C        -0.8167752256        2.1326391939        4.1795912653
  C         5.9056832907        8.3873647614        6.6128724068
  C         3.3612044421        7.3924569778        1.2165638224
  C         1.7277065826        3.1275462655        9.5759034874
  C         1.4131688341        3.3177476017        4.2689246360
  C         3.6757411633        7.2022526338        6.5235407781
  C         1.1311039863        8.5775591338        1.1272251559
  C         3.9578070117        1.9424441510        9.6652419896
  C         7.2246795430        1.2821211303        3.4691971250
  C        -2.1357689117        9.2378770183        7.3232693404
  C         4.2836775428        6.5422413860        1.9271088551
  C         0.8052311653        3.9777572732        8.8653564541
  C         0.9286360016        1.8985597530        2.3243296506
  C         4.1602742224        8.6214390862        8.4681365649
  C         1.6156823077        7.1584515709        3.0718073634
  C         3.4732280589        3.3615506478        7.7206590608
  C         2.6674497686        3.6468195457        3.6999190954
  C         2.4214590963        6.8731828025        7.0925452499
  C        -0.1231711843        8.9068079527        1.6962373407
  C         5.2120798056        1.6131906297        9.0962266075
  C         6.0222879929        0.9378435941        4.0841016467
  C        -0.9333792849        9.5821578363        6.7083632927
  C         5.4860181348        6.1979166247        1.3120980437
  C        -0.3971085568        4.3220841298        9.4803679133
  C         3.0520629271        3.0861528045        2.4668923741
  C         2.0368478283        7.4338455779        8.3255743013
  C        -0.5079718350        8.3458679046        2.9290939131
  C         5.5968821183        2.1741340068        7.8633719749
  C         5.0313612852       10.3186539374        2.1477959998
  C         0.0575478260        0.2013462780        8.6446692875
  C         6.4768146373        5.0586006098        3.2483351889
  C        -1.3879052630        5.4613997493        7.5441304563
  C         2.1711599846        2.2284250674        1.7540509624
  C         2.9177484425        8.2915774817        9.0384134889
  C         0.3732004624        7.4885348607        3.6420986303
  C         4.7157078036        3.0314634669        7.1503652402
  C         3.8157379286       10.4516776986        4.3289599494
  C         1.2731715614        0.0683225683        6.4635052777
  C         7.6925195939        5.1916457606        1.0673013451
  C        -2.6036104927        5.3283547568        9.7251639822
  O        -1.0470586053        2.5438110443        5.3843100550
  O         6.1359695292        7.9761878429        5.4081561165
  O         3.5915769205        7.8039693112        0.0119874475
  O         1.4973301701        2.7160286056       10.7804772095
  O         1.0701721884        3.8917270339        5.4637646352
  O         4.0187374249        6.6282747226        5.3286999513
  O        -2.4006838842        9.1518360942       10.7250090679
  O         7.4895918248        1.3681632985        0.0674552342
  H         0.1635721518        3.4798402485        5.6822879070
  H         4.9253380508        7.0401613012        5.1101779826
  H        -1.4941847409        8.7398940438       10.5063304618
  H         6.5830938498        1.7801075192        0.2861347601
  H         7.4468271404        0.9865162567        2.4326468453
  H        -2.3579175962        9.5334841881        8.3598186594
  H         4.0613894315        6.2465224161        2.9635945318
  H         1.0275199147        4.2734776849        7.8288713312
  H         0.2594394323        1.2146928809        1.7748598168
  H         4.8294699453        9.3053071890        9.0176058308
  H         2.2849489404        6.4747782433        3.6214573118
  H         2.8039605369        4.0452216755        7.1710074309
  H         3.3247119786        4.3108840255        4.2906470246
  H         1.7641978099        6.2091163486        6.5018184817
  H         8.1834524775        9.5708811019        1.1054312890
  H        -3.0945429926        0.9491192324        9.6870338132
  H         5.8846397686        1.2357094502        5.1410725708
  H        -0.7957299155        9.2842900594        5.6513930496
  H         5.6235506129        6.4957063555        0.2550953037
  H        -0.5346417690        4.0242933943       10.5373702854
  H         4.0321807626        3.3300919820        2.0160781413
  H         1.0567287767        7.1899087306        8.7763870445
  H         7.4758918004        8.5900764879        3.3801562032
  H        -2.3869826338        1.9299232186        7.4123084746
  H         5.4368899625        0.6058774624        1.4951475857
  H        -0.3479804799        9.9141223095        9.2973174069
  H         6.0712940428        5.8659072337        3.9008843754
  H        -0.9823845079        4.6540931340        6.8915813604
  H         3.9963386843       10.0965801769        1.8050757564
  H         1.0925704548        0.4234198617        8.9873894467
  H         7.5118487448        4.8365059370        3.5910156982
  H        -2.4229394566        5.6834939014        7.2014498888
  H         5.6594398869        9.3969389023        2.0522216472
  H        -0.5705309655        1.1230611216        8.7402440776
  H         5.8486832846        4.1369689579        3.3440983616
  H        -0.7597741056        6.3830313904        7.4483668598
  H         2.4661192934        1.7902375876        0.7816179500
  H         2.6227900426        8.7297621735       10.0108479852
  H         0.0783052987        7.0502197842        4.6144977934
  H         5.0106043777        3.4697808231        6.1779674303
  H         3.9572107719        0.3094829532        5.3651160151
  H         1.1316985326       10.2105172028        5.4273493280
  H         7.5510751670        5.5694585751        0.0311353366
  H        -2.4621663900        4.9505417165       10.7613299524
  H         3.6866901187        9.3462690304        4.3770103010
  H         1.4022197196        1.1737311774        6.4154550100
  H         7.8216779552        4.0862500958        1.0191868486
  H        -2.7327690817        6.4337504284        9.7732784297
  H         2.9105824031        0.4040546343        3.8700128383
  H         2.1783266517       10.1159452783        6.9224528895
  H        -0.3661567038        5.6640163028        1.5264305890
  H         5.4550662189        4.8559836380        9.2660343794
  N         4.9958079411        0.2640804803        3.5374232226
  N         0.0931016122       10.2559192912        7.2550421281
  N         6.5122648221        5.5237511006        1.8586054068
  N        -1.4233556868        4.9962488789        8.9338602277
     108
 i =        5, E =      -449.0854233952
  C         0.5068077205        2.4365302533        3.5733635577
  C         4.5821018629        8.0834708679        7.2191012900
  C         2.0376608436        7.6965675076        1.8229034849
  C         3.0512490551        2.8234345359        8.9695630020
  C        -0.7958968152        2.0987448726        4.2059303919
  C         5.8848069250        8.4212555422        6.5865347994
  C         3.3405079745        7.3589535672        1.1903614281
  C         1.7483998771        3.1610445530        9.6021035637
  C         1.4156310326        3.3136561397        4.2633082166
  C         3.6732788480        7.2063444763        6.5291567454
  C         1.1287930292        8.5737401932        1.1330133264
  C         3.9601158324        1.9462594653        9.6594516412
  C         7.2180888678        1.3011592003        3.4711149882
  C        -2.1291791594        9.2188412390        7.3213507127
  C         4.2902062722        6.5611751080        1.9251456378
  C         0.7987032118        3.9588257479        8.8673201270
  C         0.9379630504        1.8957386345        2.3276728254
  C         4.1509466179        8.6242610880        8.4647926457
  C         1.6064862401        7.1558785142        3.0686261804
  C         3.4824226989        3.3641209305        7.7238388513
  C         2.6779153133        3.6397669293        3.7066540060
  C         2.4109942884        6.8802340391        7.0858108516
  C        -0.1337271626        8.8995385090        1.6894037681
  C         5.2226367596        1.6204623374        9.1030617076
  C         6.0260330472        0.9285156902        4.0929566258
  C        -0.9371236730        9.5914846256        6.6995086919
  C         5.4822485621        6.1885718933        1.3032168459
  C        -0.3933393499        4.3314285285        9.4892488058
  C         3.0565355227        3.0919319360        2.4656834548
  C         2.0323743698        7.4280681954        8.3267818612
  C        -0.5124091467        8.3517938992        2.9303994159
  C         5.6013184525        2.1682062585        7.8620655777
  C         5.0300314937       10.3240714509        2.1488204086
  C         0.0588777079        0.1959286903        8.6436449420
  C         6.4781477862        5.0640044095        3.2472926689
  C        -1.3892384189        5.4559958880        7.5451728329
  C         2.1808586653        2.2238983227        1.7603028437
  C         2.9080508260        8.2961020480        9.0321627667
  C         0.3633922662        7.4838302450        3.6357229574
  C         4.7255170748        3.0361701067        7.1567422622
  C         3.8147491844       10.4425193672        4.3326758483
  C         1.2741602222        0.0774809266        6.4597893010
  C         7.6935056056        5.1824690725        1.0636050978
  C        -2.6045965042        5.3375313711        9.7288603318
  O        -1.0429843488        2.5740061517        5.3873797567
  O         6.1318943254        7.9459941413        5.4050853283
  O         3.5873643470        7.8340227117        0.0087878914
  O         1.5015435182        2.6859768462       10.7836778657
  O         1.0658149186        3.8922719967        5.4529470291
  O         4.0230951897        6.6277282708        5.3395179509
  O        -2.3964290704        9.1523123420       10.7357657154
  O         7.4853368621        1.3676871512        0.0566988125
  H         0.1584190054        3.4399421437        5.6530619068
  H         4.9304909113        7.0800594987        5.1394038168
  H        -1.4890965460        8.7000309723       10.5355192615
  H         6.5780053757        1.8199706110        0.2569459504
  H         7.4434895857        0.9848923605        2.4382811646
  H        -2.3545798612        9.5351079308        8.3541845406
  H         4.0647333245        6.2449071710        2.9579662630
  H         1.0241759735        4.2750929833        7.8344992242
  H         0.2612333514        1.2192589409        1.7744786917
  H         4.8276761125        9.3007407750        9.0179869832
  H         2.2831368066        6.4792952168        3.6218177254
  H         2.8057728445        4.0407048969        7.1706473386
  H         3.3418638718        4.3120050586        4.2862075595
  H         1.7470457075        6.2079956485        6.5062576984
  H         8.1662918106        9.5719520298        1.1098701705
  H        -3.0773824048        0.9480481882        9.6825947189
  H         5.8795507037        1.2336183510        5.1503699072
  H        -0.7906410778        9.2863816093        5.6420955478
  H         5.6286528713        6.4936296035        0.2457859553
  H        -0.5397438837        4.0263704509       10.5466795601
  H         4.0405370549        3.3295112963        2.0101476069
  H         1.0483727847        7.1904887742        8.7823176078
  H         7.4674660606        8.5894584655        3.3860431505
  H        -2.3785568875        1.9305415631        7.4064216131
  H         5.4383686846        0.6091810990        1.4906585905
  H        -0.3494592826        9.9108186654        9.3018063815
  H         6.0698427266        5.8692293246        3.9053275382
  H        -0.9809331980        4.6507709576        6.8871381714
  H         3.9939799209       10.0963880682        1.8030297551
  H         1.0949292700        0.4236120763        8.9894355114
  H         7.5141955654        4.8363041686        3.5931015795
  H        -2.4252863352        5.6836957220        7.1993640865
  H         5.6591841308        9.4008056614        2.0469575094
  H        -0.5702750976        1.1191942721        8.7455083032
  H         5.8489229087        4.1408322304        3.3493403605
  H        -0.7600136186        6.3791680390        7.4431250729
  H         2.4749696986        1.7987404648        0.7788483239
  H         2.6139395214        8.7212598010       10.0136172688
  H         0.0694334227        7.0587394513        4.6172506962
  H         5.0194759455        3.4612606706        6.1752144039
  H         3.9460570385        0.3048721975        5.3712900613
  H         1.1428523803       10.2151279532        5.4211751703
  H         7.5622799651        5.5648510016        0.0249837283
  H        -2.4733711976        4.9551492717       10.7674816753
  H         3.6690038602        9.3345428678        4.3714610551
  H         1.4199059862        1.1854573473        6.4210042281
  H         7.8394140844        4.0745132991        1.0247304027
  H        -2.7505051078        6.4454872116        9.7677346813
  H         2.9058750365        0.3979934156        3.8746484173
  H         2.1830339864       10.1220065983        6.9178172172
  H        -0.3614470904        5.6579312078        1.5218029907
  H         5.4503565944        4.8620688124        9.2706619987
  N         4.9927371366        0.2620615083        3.5419703013
  N         0.0961723325       10.2579384486        7.2504950768
  N         6.5152991222        5.5216930776        1.8540290524
  N        -1.4263900241        4.9983071502        8.9384365410
     108
 i =        6, E =      -449.0882388995
  C         0.5189897038        2.4285537294        3.5761843185
  C         4.5699196860        8.0914466198        7.2162811874
  C         2.0255374275        7.6887245432        1.8201463464
  C         3.0633716075        2.8312753541        8.9723185705
  C        -0.7897744578        2.0951069016        4.2040865453
  C         5.8786845193        8.4248920670        6.5883797236
  C         3.3342959440        7.3551428882        1.1921351443
  C         1.7546135019        3.1648581966        9.6003299422
  C         1.4101317827        3.3330880681        4.2531076458
  C         3.6787775216        7.1869131539        6.5393568665
  C         1.1342363384        8.5931073641        1.1431812729
  C         3.9546724993        1.9268924968        9.6492837523
  C         7.2176521357        1.2980082946        3.4778578163
  C        -2.1287428642        9.2219927860        7.3146071147
  C         4.2907347014        6.5581552971        1.9184186065
  C         0.7981740852        3.9618448064        8.8740466154
  C         0.9329350834        1.8967186327        2.3215714901
  C         4.1559740564        8.6232827464        8.4708934812
  C         1.6114434803        7.1568121640        3.0746742660
  C         3.4774657590        3.3631883770        7.7177910712
  C         2.6872899818        3.6220138900        3.7103038369
  C         2.4016201684        6.8979856656        7.0821617592
  C        -0.1430778160        8.8818491264        1.6857905818
  C         5.2319872150        1.6381515682        9.1066750568
  C         6.0186795859        0.9371852601        4.0936160820