 Entering Gaussian System, Link 0=g09
 Input=high_pop.com
 Output=high_pop.log
 Initial command:
 /share/apps/gaussian/g09_D01/g09/l1.exe "/tmp/219770.1.all.q/Gau-24184.inp" -scrdir="/tmp/219770.1.all.q/"
 Default is to use a total of   2 processors:
                                2 via shared-memory
                                1 via Linda
 Entering Link 1 = /share/apps/gaussian/g09_D01/g09/l1.exe PID=     24185.
  
 Copyright (c) 1988,1990,1992,1993,1995,1998,2003,2009,2013,
            Gaussian, Inc.  All Rights Reserved.
  
 This is part of the Gaussian(R) 09 program.  It is based on
 the Gaussian(R) 03 system (copyright 2003, Gaussian, Inc.),
 the Gaussian(R) 98 system (copyright 1998, Gaussian, Inc.),
 the Gaussian(R) 94 system (copyright 1995, Gaussian, Inc.),
 the Gaussian 92(TM) system (copyright 1992, Gaussian, Inc.),
 the Gaussian 90(TM) system (copyright 1990, Gaussian, Inc.),
 the Gaussian 88(TM) system (copyright 1988, Gaussian, Inc.),
 the Gaussian 86(TM) system (copyright 1986, Carnegie Mellon
 University), and the Gaussian 82(TM) system (copyright 1983,
 Carnegie Mellon University). Gaussian is a federally registered
 trademark of Gaussian, Inc.
  
 This software contains proprietary and confidential information,
 including trade secrets, belonging to Gaussian, Inc.
  
 This software is provided under written license and may be
 used, copied, transmitted, or stored only in accord with that
 written license.
  
 The following legend is applicable only to US Government
 contracts under FAR:
  
                    RESTRICTED RIGHTS LEGEND
  
 Use, reproduction and disclosure by the US Government is
 subject to restrictions as set forth in subparagraphs (a)
 and (c) of the Commercial Computer Software - Restricted
 Rights clause in FAR 52.227-19.
  
 Gaussian, Inc.
 340 Quinnipiac St., Bldg. 40, Wallingford CT 06492
  
  
 ---------------------------------------------------------------
 Warning -- This program may not be used in any manner that
 competes with the business of Gaussian, Inc. or will provide
 assistance to any competitor of Gaussian, Inc.  The licensee
 of this program is prohibited from giving any competitor of
 Gaussian, Inc. access to this program.  By using this program,
 the user acknowledges that Gaussian, Inc. is engaged in the
 business of creating and licensing software in the field of
 computational chemistry and represents and warrants to the
 licensee that it is not a competitor of Gaussian, Inc. and that
 it will not use this program in any manner prohibited above.
 ---------------------------------------------------------------
  

 Cite this work as:
 Gaussian 09, Revision D.01,
 M. J. Frisch, G. W. Trucks, H. B. Schlegel, G. E. Scuseria, 
 M. A. Robb, J. R. Cheeseman, G. Scalmani, V. Barone, B. Mennucci, 
 G. A. Petersson, H. Nakatsuji, M. Caricato, X. Li, H. P. Hratchian, 
 A. F. Izmaylov, J. Bloino, G. Zheng, J. L. Sonnenberg, M. Hada, 
 M. Ehara, K. Toyota, R. Fukuda, J. Hasegawa, M. Ishida, T. Nakajima, 
 Y. Honda, O. Kitao, H. Nakai, T. Vreven, J. A. Montgomery, Jr., 
 J. E. Peralta, F. Ogliaro, M. Bearpark, J. J. Heyd, E. Brothers, 
 K. N. Kudin, V. N. Staroverov, T. Keith, R. Kobayashi, J. Normand, 
 K. Raghavachari, A. Rendell, J. C. Burant, S. S. Iyengar, J. Tomasi, 
 M. Cossi, N. Rega, J. M. Millam, M. Klene, J. E. Knox, J. B. Cross, 
 V. Bakken, C. Adamo, J. Jaramillo, R. Gomperts, R. E. Stratmann, 
 O. Yazyev, A. J. Austin, R. Cammi, C. Pomelli, J. W. Ochterski, 
 R. L. Martin, K. Morokuma, V. G. Zakrzewski, G. A. Voth, 
 P. Salvador, J. J. Dannenberg, S. Dapprich, A. D. Daniels, 
 O. Farkas, J. B. Foresman, J. V. Ortiz, J. Cioslowski, 
 and D. J. Fox, Gaussian, Inc., Wallingford CT, 2013.
 
 ******************************************
 Gaussian 09:  ES64L-G09RevD.01 24-Apr-2013
                14-Feb-2018 
 ******************************************
 %chk=high_pop.chk
 %mem=14GB
 %nproc=2
 Will use up to    2 processors via shared memory.
 --------------------------
 #pbepbe 6-31g* opt Pop=ESP
 --------------------------
 1/14=-1,18=20,19=15,26=3,38=1/1,3;
 2/9=110,12=2,17=6,18=5,40=1/2;
 3/5=1,6=6,7=1,11=2,16=1,25=1,30=1,71=1,74=1009/1,2,3;
 4//1;
 5/5=2,38=5/2;
 6/7=2,8=2,9=2,10=2,15=8,28=1/1,2;
 7//1,2,3,16;
 1/14=-1,18=20,19=15,26=3/3(2);
 2/9=110/2;
 99//99;
 2/9=110/2;
 3/5=1,6=6,7=1,11=2,16=1,25=1,30=1,71=1,74=1009/1,2,3;
 4/5=5,16=3,69=1/1;
 5/5=2,38=5/2;
 7//1,2,3,16;
 1/14=-1,18=20,19=15,26=3/3(-5);
 2/9=110/2;
 6/7=2,8=2,9=2,10=2,15=8,19=2,28=1/1,2;
 99/9=1/99;
 Leave Link    1 at Wed Feb 14 14:10:49 2018, MaxMem=  1879048192 cpu:         0.1
 (Enter /share/apps/gaussian/g09_D01/g09/l101.exe)
 --------
 high_pop
 --------
 Symbolic Z-matrix:
 Charge =  0 Multiplicity = 1
 C                     1.64369   0.89784   0.1405 
 C                     0.2827    0.63093   0.75083 
 C                     2.57005   1.64093   0.89901 
 C                     2.02464   0.44845  -1.1274 
 C                    -0.74772  -0.15671  -0.0009 
 O                     0.02911   1.06793   1.88437 
 C                     3.84369   1.91111   0.36952 
 O                     2.28323   2.12218   2.15349 
 C                     3.27421   0.71737  -1.63863 
 H                     1.32927  -0.12317  -1.72627 
 C                    -1.92455  -0.38501   0.56678 
 H                    -0.50978  -0.51755  -0.98395 
 C                     4.18555   1.45401  -0.88075 
 H                     4.53882   2.48286   0.96816 
 H                     1.34659   1.81649   2.31606 
 H                     3.54803   0.36037  -2.6212 
 H                    -2.10072   0.00042   1.56933 
 N                    -3.05529  -1.02788   0.00343 
 H                     5.16989   1.66697  -1.28129 
 C                    -2.84873  -1.77616  -1.25288 
 C                    -3.93766  -1.71215   0.97427 
 H                    -2.44881  -1.1103   -2.01523 
 H                    -3.81054  -2.15194  -1.59623 
 H                    -2.16594  -2.62163  -1.13238 
 H                    -4.11074  -1.05792   1.82664 
 H                    -3.51483  -2.65364   1.33613 
 H                    -4.89418  -1.9238    0.49859 
 
 NAtoms=     27 NQM=       27 NQMF=       0 NMMI=      0 NMMIF=      0
                NMic=       0 NMicF=      0.
                    Isotopes and Nuclear Properties:
 (Nuclear quadrupole moments (NQMom) in fm**2, nuclear magnetic moments (NMagM)
  in nuclear magnetons)

  Atom         1           2           3           4           5           6           7           8           9          10
 IAtWgt=          12          12          12          12          12          16          12          16          12           1
 AtmWgt=  12.0000000  12.0000000  12.0000000  12.0000000  12.0000000  15.9949146  12.0000000  15.9949146  12.0000000   1.0078250
 NucSpn=           0           0           0           0           0           0           0           0           0           1
 AtZEff=   0.0000000   0.0000000   0.0000000   0.0000000   0.0000000   0.0000000   0.0000000   0.0000000   0.0000000   0.0000000
 NQMom=    0.0000000   0.0000000   0.0000000   0.0000000   0.0000000   0.0000000   0.0000000   0.0000000   0.0000000   0.0000000
 NMagM=    0.0000000   0.0000000   0.0000000   0.0000000   0.0000000   0.0000000   0.0000000   0.0000000   0.0000000   2.7928460
 AtZNuc=   6.0000000   6.0000000   6.0000000   6.0000000   6.0000000   8.0000000   6.0000000   8.0000000   6.0000000   1.0000000

  Atom        11          12          13          14          15          16          17          18          19          20
 IAtWgt=          12           1          12           1           1           1           1          14           1          12
 AtmWgt=  12.0000000   1.0078250  12.0000000   1.0078250   1.0078250   1.0078250   1.0078250  14.0030740   1.0078250  12.0000000
 NucSpn=           0           1           0           1           1           1           1           2           1           0
 AtZEff=   0.0000000   0.0000000   0.0000000   0.0000000   0.0000000   0.0000000   0.0000000   0.0000000   0.0000000   0.0000000
 NQMom=    0.0000000   0.0000000   0.0000000   0.0000000   0.0000000   0.0000000   0.0000000   2.0440000   0.0000000   0.0000000
 NMagM=    0.0000000   2.7928460   0.0000000   2.7928460   2.7928460   2.7928460   2.7928460   0.4037610   2.7928460   0.0000000
 AtZNuc=   6.0000000   1.0000000   6.0000000   1.0000000   1.0000000   1.0000000   1.0000000   7.0000000   1.0000000   6.0000000

  Atom        21          22          23          24          25          26          27
 IAtWgt=          12           1           1           1           1           1           1
 AtmWgt=  12.0000000   1.0078250   1.0078250   1.0078250   1.0078250   1.0078250   1.0078250
 NucSpn=           0           1           1           1           1           1           1
 AtZEff=   0.0000000   0.0000000   0.0000000   0.0000000   0.0000000   0.0000000   0.0000000
 NQMom=    0.0000000   0.0000000   0.0000000   0.0000000   0.0000000   0.0000000   0.0000000
 NMagM=    0.0000000   2.7928460   2.7928460   2.7928460   2.7928460   2.7928460   2.7928460
 AtZNuc=   6.0000000   1.0000000   1.0000000   1.0000000   1.0000000   1.0000000   1.0000000
 Leave Link  101 at Wed Feb 14 14:10:50 2018, MaxMem=  1879048192 cpu:         0.5
 (Enter /share/apps/gaussian/g09_D01/g09/l103.exe)

 GradGradGradGradGradGradGradGradGradGradGradGradGradGradGradGradGradGrad
 Berny optimization.
 Initialization pass.
                           ----------------------------
                           !    Initial Parameters    !
                           ! (Angstroms and Degrees)  !
 --------------------------                            --------------------------
 ! Name  Definition              Value          Derivative Info.                !
 --------------------------------------------------------------------------------
 ! R1    R(1,2)                  1.5153         estimate D2E/DX2                !
 ! R2    R(1,3)                  1.4091         estimate D2E/DX2                !
 ! R3    R(1,4)                  1.3981         estimate D2E/DX2                !
 ! R4    R(2,5)                  1.4991         estimate D2E/DX2                !
 ! R5    R(2,6)                  1.241          estimate D2E/DX2                !
 ! R6    R(3,7)                  1.4055         estimate D2E/DX2                !
 ! R7    R(3,8)                  1.3739         estimate D2E/DX2                !
 ! R8    R(4,9)                  1.3766         estimate D2E/DX2                !
 ! R9    R(4,10)                 1.0812         estimate D2E/DX2                !
 ! R10   R(5,11)                 1.3264         estimate D2E/DX2                !
 ! R11   R(5,12)                 1.0739         estimate D2E/DX2                !
 ! R12   R(7,13)                 1.3744         estimate D2E/DX2                !
 ! R13   R(7,14)                 1.081          estimate D2E/DX2                !
 ! R14   R(8,15)                 0.9986         estimate D2E/DX2                !
 ! R15   R(9,13)                 1.3955         estimate D2E/DX2                !
 ! R16   R(9,16)                 1.0807         estimate D2E/DX2                !
 ! R17   R(11,17)                1.0884         estimate D2E/DX2                !
 ! R18   R(11,18)                1.4175         estimate D2E/DX2                !
 ! R19   R(13,19)                1.0838         estimate D2E/DX2                !
 ! R20   R(18,20)                1.4768         estimate D2E/DX2                !
 ! R21   R(18,21)                1.4796         estimate D2E/DX2                !
 ! R22   R(20,22)                1.0883         estimate D2E/DX2                !
 ! R23   R(20,23)                1.0882         estimate D2E/DX2                !
 ! R24   R(20,24)                1.0934         estimate D2E/DX2                !
 ! R25   R(21,25)                1.0884         estimate D2E/DX2                !
 ! R26   R(21,26)                1.0937         estimate D2E/DX2                !
 ! R27   R(21,27)                1.089          estimate D2E/DX2                !
 ! A1    A(2,1,3)              117.8097         estimate D2E/DX2                !
 ! A2    A(2,1,4)              123.6005         estimate D2E/DX2                !
 ! A3    A(3,1,4)              118.5898         estimate D2E/DX2                !
 ! A4    A(1,2,5)              120.5274         estimate D2E/DX2                !
 ! A5    A(1,2,6)              119.3013         estimate D2E/DX2                !
 ! A6    A(5,2,6)              120.1709         estimate D2E/DX2                !
 ! A7    A(1,3,7)              119.6231         estimate D2E/DX2                !
 ! A8    A(1,3,8)              122.6138         estimate D2E/DX2                !
 ! A9    A(7,3,8)              117.7631         estimate D2E/DX2                !
 ! A10   A(1,4,9)              121.4208         estimate D2E/DX2                !
 ! A11   A(1,4,10)             119.8033         estimate D2E/DX2                !
 ! A12   A(9,4,10)             118.7759         estimate D2E/DX2                !
 ! A13   A(2,5,11)             119.057          estimate D2E/DX2                !
 ! A14   A(2,5,12)             118.9012         estimate D2E/DX2                !
 ! A15   A(11,5,12)            122.0417         estimate D2E/DX2                !
 ! A16   A(3,7,13)             120.2753         estimate D2E/DX2                !
 ! A17   A(3,7,14)             118.4091         estimate D2E/DX2                !
 ! A18   A(13,7,14)            121.3156         estimate D2E/DX2                !
 ! A19   A(3,8,15)             103.7229         estimate D2E/DX2                !
 ! A20   A(4,9,13)             119.6172         estimate D2E/DX2                !
 ! A21   A(4,9,16)             120.2052         estimate D2E/DX2                !
 ! A22   A(13,9,16)            120.1776         estimate D2E/DX2                !
 ! A23   A(5,11,17)            118.4812         estimate D2E/DX2                !
 ! A24   A(5,11,18)            128.0059         estimate D2E/DX2                !
 ! A25   A(17,11,18)           113.4252         estimate D2E/DX2                !
 ! A26   A(7,13,9)             120.4739         estimate D2E/DX2                !
 ! A27   A(7,13,19)            119.7832         estimate D2E/DX2                !
 ! A28   A(9,13,19)            119.743          estimate D2E/DX2                !
 ! A29   A(11,18,20)           117.1496         estimate D2E/DX2                !
 ! A30   A(11,18,21)           115.1309         estimate D2E/DX2                !
 ! A31   A(20,18,21)           114.0329         estimate D2E/DX2                !
 ! A32   A(18,20,22)           109.7121         estimate D2E/DX2                !
 ! A33   A(18,20,23)           108.6487         estimate D2E/DX2                !
 ! A34   A(18,20,24)           112.6682         estimate D2E/DX2                !
 ! A35   A(22,20,23)           108.3628         estimate D2E/DX2                !
 ! A36   A(22,20,24)           108.7123         estimate D2E/DX2                !
 ! A37   A(23,20,24)           108.6432         estimate D2E/DX2                !
 ! A38   A(18,21,25)           109.3121         estimate D2E/DX2                !
 ! A39   A(18,21,26)           112.622          estimate D2E/DX2                !
 ! A40   A(18,21,27)           109.0906         estimate D2E/DX2                !
 ! A41   A(25,21,26)           108.652          estimate D2E/DX2                !
 ! A42   A(25,21,27)           108.6161         estimate D2E/DX2                !
 ! A43   A(26,21,27)           108.4689         estimate D2E/DX2                !
 ! D1    D(3,1,2,5)           -179.8093         estimate D2E/DX2                !
 ! D2    D(3,1,2,6)             -0.0441         estimate D2E/DX2                !
 ! D3    D(4,1,2,5)              0.2136         estimate D2E/DX2                !
 ! D4    D(4,1,2,6)            179.9788         estimate D2E/DX2                !
 ! D5    D(2,1,3,7)           -179.981          estimate D2E/DX2                !
 ! D6    D(2,1,3,8)              0.0385         estimate D2E/DX2                !
 ! D7    D(4,1,3,7)             -0.0028         estimate D2E/DX2                !
 ! D8    D(4,1,3,8)           -179.9833         estimate D2E/DX2                !
 ! D9    D(2,1,4,9)            179.9842         estimate D2E/DX2                !
 ! D10   D(2,1,4,10)            -0.0093         estimate D2E/DX2                !
 ! D11   D(3,1,4,9)              0.0073         estimate D2E/DX2                !
 ! D12   D(3,1,4,10)          -179.9862         estimate D2E/DX2                !
 ! D13   D(1,2,5,11)           179.3003         estimate D2E/DX2                !
 ! D14   D(1,2,5,12)            -0.7853         estimate D2E/DX2                !
 ! D15   D(6,2,5,11)            -0.4629         estimate D2E/DX2                !
 ! D16   D(6,2,5,12)           179.4515         estimate D2E/DX2                !
 ! D17   D(1,3,7,13)            -0.0003         estimate D2E/DX2                !
 ! D18   D(1,3,7,14)           179.9966         estimate D2E/DX2                !
 ! D19   D(8,3,7,13)           179.9812         estimate D2E/DX2                !
 ! D20   D(8,3,7,14)            -0.0219         estimate D2E/DX2                !
 ! D21   D(1,3,8,15)            -0.0847         estimate D2E/DX2                !
 ! D22   D(7,3,8,15)           179.9345         estimate D2E/DX2                !
 ! D23   D(1,4,9,13)            -0.0087         estimate D2E/DX2                !
 ! D24   D(1,4,9,16)          -179.9973         estimate D2E/DX2                !
 ! D25   D(10,4,9,13)          179.9849         estimate D2E/DX2                !
 ! D26   D(10,4,9,16)           -0.0037         estimate D2E/DX2                !
 ! D27   D(2,5,11,17)           -0.6205         estimate D2E/DX2                !
 ! D28   D(2,5,11,18)          175.7301         estimate D2E/DX2                !
 ! D29   D(12,5,11,17)         179.4679         estimate D2E/DX2                !
 ! D30   D(12,5,11,18)          -4.1815         estimate D2E/DX2                !
 ! D31   D(3,7,13,9)            -0.001          estimate D2E/DX2                !
 ! D32   D(3,7,13,19)          180.0            estimate D2E/DX2                !
 ! D33   D(14,7,13,9)         -179.9978         estimate D2E/DX2                !
 ! D34   D(14,7,13,19)           0.0032         estimate D2E/DX2                !
 ! D35   D(4,9,13,7)             0.0054         estimate D2E/DX2                !
 ! D36   D(4,9,13,19)         -179.9956         estimate D2E/DX2                !
 ! D37   D(16,9,13,7)          179.9941         estimate D2E/DX2                !
 ! D38   D(16,9,13,19)          -0.0069         estimate D2E/DX2                !
 ! D39   D(5,11,18,20)          13.4319         estimate D2E/DX2                !
 ! D40   D(5,11,18,21)         151.686          estimate D2E/DX2                !
 ! D41   D(17,11,18,20)       -170.0637         estimate D2E/DX2                !
 ! D42   D(17,11,18,21)        -31.8096         estimate D2E/DX2                !
 ! D43   D(11,18,20,22)        -57.8203         estimate D2E/DX2                !
 ! D44   D(11,18,20,23)       -176.1213         estimate D2E/DX2                !
 ! D45   D(11,18,20,24)         63.4421         estimate D2E/DX2                !
 ! D46   D(21,18,20,22)        163.4808         estimate D2E/DX2                !
 ! D47   D(21,18,20,23)         45.1799         estimate D2E/DX2                !
 ! D48   D(21,18,20,24)        -75.2568         estimate D2E/DX2                !
 ! D49   D(11,18,21,25)         45.6301         estimate D2E/DX2                !
 ! D50   D(11,18,21,26)        -75.2447         estimate D2E/DX2                !
 ! D51   D(11,18,21,27)        164.2652         estimate D2E/DX2                !
 ! D52   D(20,18,21,25)       -174.8136         estimate D2E/DX2                !
 ! D53   D(20,18,21,26)         64.3116         estimate D2E/DX2                !
 ! D54   D(20,18,21,27)        -56.1785         estimate D2E/DX2                !
 --------------------------------------------------------------------------------
 Trust Radius=3.00D-01 FncErr=1.00D-07 GrdErr=1.00D-06
 Number of steps in this run=    134 maximum allowed number of steps=    162.
 GradGradGradGradGradGradGradGradGradGradGradGradGradGradGradGradGradGrad

 Leave Link  103 at Wed Feb 14 14:10:50 2018, MaxMem=  1879048192 cpu:         0.0
 (Enter /share/apps/gaussian/g09_D01/g09/l202.exe)
                          Input orientation:                          
 ---------------------------------------------------------------------
 Center     Atomic      Atomic             Coordinates (Angstroms)
 Number     Number       Type             X           Y           Z
 ---------------------------------------------------------------------
      1          6           0        1.643689    0.897842    0.140498
      2          6           0        0.282702    0.630934    0.750828
      3          6           0        2.570049    1.640928    0.899012
      4          6           0        2.024639    0.448450   -1.127404
      5          6           0       -0.747715   -0.156710   -0.000901
      6          8           0        0.029114    1.067930    1.884373
      7          6           0        3.843690    1.911110    0.369516
      8          8           0        2.283231    2.122182    2.153493
      9          6           0        3.274213    0.717369   -1.638626
     10          1           0        1.329272   -0.123171   -1.726271
     11          6           0       -1.924547   -0.385010    0.566775
     12          1           0       -0.509780   -0.517552   -0.983951
     13          6           0        4.185545    1.454007   -0.880753
     14          1           0        4.538817    2.482859    0.968158
     15          1           0        1.346587    1.816485    2.316060
     16          1           0        3.548025    0.360369   -2.621195
     17          1           0       -2.100720    0.000423    1.569329
     18          7           0       -3.055292   -1.027879    0.003432
     19          1           0        5.169891    1.666974   -1.281288
     20          6           0       -2.848727   -1.776156   -1.252876
     21          6           0       -3.937655   -1.712150    0.974266
     22          1           0       -2.448814   -1.110300   -2.015228
     23          1           0       -3.810538   -2.151943   -1.596231
     24          1           0       -2.165939   -2.621634   -1.132379
     25          1           0       -4.110739   -1.057923    1.826641
     26          1           0       -3.514825   -2.653636    1.336133
     27          1           0       -4.894176   -1.923800    0.498588
 ---------------------------------------------------------------------
                    Distance matrix (angstroms):
                    1          2          3          4          5
     1  C    0.000000
     2  C    1.515265   0.000000
     3  C    1.409136   2.504796   0.000000
     4  C    1.398089   2.568151   2.413677   0.000000
     5  C    2.617420   1.499079   3.879292   3.053060   0.000000
     6  O    2.382621   1.241047   2.784890   3.665607   2.378543
     7  C    2.432934   3.803273   1.405534   2.772921   5.049167
     8  O    2.441346   2.862413   1.373897   3.692226   4.361353
     9  C    2.420013   3.829634   2.790773   1.376627   4.429680
    10  H    2.150849   2.792848   3.397600   1.081170   2.700352
    11  C    3.815721   2.436794   4.941275   4.377324   1.326390
    12  H    2.811611   2.226321   4.205940   2.716067   1.073875
    13  C    2.795229   4.309488   2.410877   2.396142   5.263611
    14  H    3.402803   4.646652   2.142353   3.853737   5.987806
    15  H    2.380177   2.233234   1.880347   3.766792   3.694307
    16  H    3.397399   4.701710   3.871450   2.135386   5.058329
    17  H    4.107008   2.597728   4.995665   4.948907   2.078686
    18  N    5.080119   3.801640   6.290394   5.409624   2.466549
    19  H    3.879064   5.393282   3.393164   3.376550   6.323233
    20  C    5.410504   4.428855   6.757974   5.358574   2.933308
    21  C    6.217606   4.832327   7.321134   6.680880   3.680497
    22  H    5.042655   4.259594   6.422697   4.819721   2.803673
    23  H    6.485831   5.477929   7.830964   6.405555   3.988348
    24  H    5.340430   4.485701   6.687718   5.194842   3.060629
    25  H    6.307261   4.828244   7.264793   6.974124   3.932178
    26  H    6.375955   5.054918   7.460566   6.810111   3.959697
    27  H    7.129767   5.778439   8.281442   7.492758   4.534891
                    6          7          8          9         10
     6  O    0.000000
     7  C    4.190076   0.000000
     8  O    2.502981   2.379529   0.000000
     9  C    4.802612   2.404570   4.163618   0.000000
    10  H    4.018194   3.853949   4.583036   2.120609   0.000000
    11  C    2.768373   6.211573   5.148697   5.753793   3.989230
    12  H    3.321362   5.165556   4.961115   4.033886   2.022050
    13  C    5.007085   1.374402   3.643063   1.395540   3.370562
    14  H    4.814447   1.080958   2.573475   3.392860   4.934827
    15  H    1.575571   3.167572   0.998589   4.534682   4.483637
    16  H    5.760514   3.381799   5.244171   1.080677   2.440812
    17  H    2.403126   6.358167   4.905317   6.300388   4.758266
    18  N    4.176591   7.507838   6.560905   6.767930   4.799455
    19  H    6.066947   2.131564   4.509738   2.150124   4.260632
    20  C    5.119876   7.811308   7.289539   6.622452   4.517979
    21  C    4.928732   8.604828   7.402169   8.046167   6.128481
    22  H    5.108004   7.376417   7.086566   6.019572   3.915591
    23  H    6.101239   8.885931   8.334422   7.643850   5.527248
    24  H    5.247088   7.675747   7.286691   6.403162   4.337225
    25  H    4.654134   8.614599   7.148619   8.348488   6.564348
    26  H    5.168184   8.713151   7.556055   8.142721   6.264730
    27  H    5.925338   9.543244   8.403800   8.846809   6.850078
                   11         12         13         14         15
    11  C    0.000000
    12  H    2.103303   0.000000
    13  C    6.542977   5.093503   0.000000
    14  H    7.082433   6.188823   2.145183   0.000000
    15  H    4.313571   4.447910   4.290768   3.528630   0.000000
    16  H    6.377130   4.462857   2.152119   4.286034   5.598490
    17  H    1.088444   3.052643   6.901662   7.113884   3.967318
    18  N    1.417470   2.777587   7.705275   8.421785   5.728455
    19  H    7.612951   6.092555   1.083845   2.474658   5.251754
    20  C    2.469924   2.669659   7.749414   8.811811   6.576096
    21  C    2.445394   4.124561   8.913586   9.457733   6.494220
    22  H    2.732698   2.274804   7.202598   8.404664   6.459969
    23  H    3.370105   3.733781   8.800689   9.887831   7.592785
    24  H    2.819199   2.681801   7.550862   8.684576   6.627705
    25  H    2.611419   4.599819   9.081195   9.385571   6.187419
    26  H    2.875336   4.356138   9.004611   9.559296   6.676493
    27  H    3.345328   4.837188   9.785371  10.422116   7.499337
                   16         17         18         19         20
    16  H    0.000000
    17  H    7.042611   0.000000
    18  N    7.240145   2.102533   0.000000
    19  H    2.476493   7.985311   8.750221   0.000000
    20  C    6.881531   3.417688   1.476786   8.726637   0.000000
    21  C    8.559093   2.580956   1.479632   9.972632   2.479924
    22  H    6.204204   3.768809   2.109407   8.142271   1.088336
    23  H    7.842877   4.192485   2.095910   9.763781   1.088204
    24  H    6.615006   3.765456   2.149668   8.498749   1.093413
    25  H    8.969474   2.286150   2.106884  10.159448   3.404696
    26  H    8.638780   3.016306   2.151824  10.047032   2.813650
    27  H    9.285539   3.557038   2.104602  10.832685   2.696903
                   21         22         23         24         25
    21  C    0.000000
    22  H    3.393515   0.000000
    23  H    2.610945   1.764900   0.000000
    24  H    2.898981   1.773012   1.772138   0.000000
    25  H    1.088354   4.186251   3.605975   3.870819   0.000000
    26  H    1.093677   3.840558   2.989632   2.813196   1.772572
    27  H    1.089035   3.600118   2.369512   3.254275   1.768401
                   26         27
    26  H    0.000000
    27  H    1.771088   0.000000
 Stoichiometry    C11H13NO2
 Framework group  C1[X(C11H13NO2)]
 Deg. of freedom    75
 Full point group                 C1      NOp   1
 Largest Abelian subgroup         C1      NOp   1
 Largest concise Abelian subgroup C1      NOp   1
                         Standard orientation:                         
 ---------------------------------------------------------------------
 Center     Atomic      Atomic             Coordinates (Angstroms)
 Number     Number       Type             X           Y           Z
 ---------------------------------------------------------------------
      1          6           0       -1.374629    0.056873   -0.017871
      2          6           0       -0.016128   -0.611950   -0.074270
      3          6           0       -2.514207   -0.771288    0.016367
      4          6           0       -1.554270    1.443239    0.001334
      5          6           0        1.236707    0.210531   -0.108438
      6          8           0        0.050703   -1.851125   -0.087562
      7          6           0       -3.793345   -0.191113    0.068599
      8          8           0       -2.433645   -2.142738    0.001268
      9          6           0       -2.810705    2.003453    0.052644
     10          1           0       -0.693566    2.097035   -0.024493
     11          6           0        2.410907   -0.405372   -0.143486
     12          1           0        1.154871    1.281278   -0.105159
     13          6           0       -3.933944    1.175964    0.086261
     14          1           0       -4.653886   -0.844786    0.094139
     15          1           0       -1.452039   -2.321964   -0.037572
     16          1           0       -2.926814    3.077784    0.066633
     17          1           0        2.426604   -1.493676   -0.135945
     18          7           0        3.698206    0.175962   -0.262361
     19          1           0       -4.924129    1.614857    0.126601
     20          6           0        3.800580    1.634638   -0.055764
     21          6           0        4.797033   -0.598741    0.355476
     22          1           0        3.151876    2.151602   -0.760326
     23          1           0        4.827063    1.941819   -0.245924
     24          1           0        3.527629    1.936693    0.959033
     25          1           0        4.697327   -1.647019    0.080363
     26          1           0        4.803782   -0.522556    1.446475
     27          1           0        5.749391   -0.229305   -0.022054
 ---------------------------------------------------------------------
 Rotational constants (GHZ):      1.5885881      0.3158705      0.2654173
 Leave Link  202 at Wed Feb 14 14:10:50 2018, MaxMem=  1879048192 cpu:         0.1
 (Enter /share/apps/gaussian/g09_D01/g09/l301.exe)
 Standard basis: 6-31G(d) (6D, 7F)
 Ernie: Thresh=  0.10000D-02 Tol=  0.10000D-05 Strict=F.
 There are   236 symmetry adapted cartesian basis functions of A   symmetry.
 There are   236 symmetry adapted basis functions of A   symmetry.
   236 basis functions,   444 primitive gaussians,   236 cartesian basis functions
    51 alpha electrons       51 beta electrons
       nuclear repulsion energy       831.8929279354 Hartrees.
 IExCor= 1009 DFT=T Ex=PBE Corr=PBE ExCW=0 ScaHFX=  0.000000
 ScaDFX=  1.000000  1.000000  1.000000  1.000000 ScalE2=  1.000000  1.000000
 IRadAn=      0 IRanWt=     -1 IRanGd=            0 ICorTp=0 IEmpDi=  4
 NAtoms=   27 NActive=   27 NUniq=   27 SFac= 1.00D+00 NAtFMM=   60 NAOKFM=F Big=F
 Integral buffers will be    131072 words long.
 Raffenetti 2 integral format.
 Two-electron integral symmetry is turned on.
 Leave Link  301 at Wed Feb 14 14:10:50 2018, MaxMem=  1879048192 cpu:         0.1
 (Enter /share/apps/gaussian/g09_D01/g09/l302.exe)
 NPDir=0 NMtPBC=     1 NCelOv=     1 NCel=       1 NClECP=     1 NCelD=      1
         NCelK=      1 NCelE2=     1 NClLst=     1 CellRange=     0.0.
 One-electron integrals computed using PRISM.
 NBasis=   236 RedAO= T EigKep=  3.82D-04  NBF=   236
 NBsUse=   236 1.00D-06 EigRej= -1.00D+00 NBFU=   236
 Precomputing XC quadrature grid using
 IXCGrd= 4 IRadAn=           0 IRanWt=          -1 IRanGd=           0 AccXCQ= 0.00D+00.
 Generated NRdTot=       0 NPtTot=           0 NUsed=           0 NTot=          32
 NSgBfM=   235   235   235   235   235 MxSgAt=    27 MxSgA2=    27.
 Leave Link  302 at Wed Feb 14 14:10:51 2018, MaxMem=  1879048192 cpu:         1.3
 (Enter /share/apps/gaussian/g09_D01/g09/l303.exe)
 DipDrv:  MaxL=1.
 Leave Link  303 at Wed Feb 14 14:10:51 2018, MaxMem=  1879048192 cpu:         0.1
 (Enter /share/apps/gaussian/g09_D01/g09/l401.exe)
 ExpMin= 1.61D-01 ExpMax= 5.48D+03 ExpMxC= 8.25D+02 IAcc=1 IRadAn=         1 AccDes= 0.00D+00
 Harris functional with IExCor= 1009 and IRadAn=       1 diagonalized for initial guess.
 HarFok:  IExCor= 1009 AccDes= 0.00D+00 IRadAn=         1 IDoV= 1 UseB2=F ITyADJ=14
 ICtDFT=  3500011 ScaDFX=  1.000000  1.000000  1.000000  1.000000
 FoFCou: FMM=F IPFlag=           0 FMFlag=      100000 FMFlg1=           0
         NFxFlg=           0 DoJE=T BraDBF=F KetDBF=T FulRan=T
         wScrn=  0.000000 ICntrl=     500 IOpCl=  0 I1Cent=   200000004 NGrid=           0
         NMat0=    1 NMatS0=      1 NMatT0=    0 NMatD0=    1 NMtDS0=    0 NMtDT0=    0
 Petite list used in FoFCou.
 Harris En= -631.623236709150    
 JPrj=0 DoOrth=F DoCkMO=F.
 Leave Link  401 at Wed Feb 14 14:10:53 2018, MaxMem=  1879048192 cpu:         2.1
 (Enter /share/apps/gaussian/g09_D01/g09/l502.exe)
 Closed shell SCF:
 Using DIIS extrapolation, IDIIS=  1040.
 Integral symmetry usage will be decided dynamically.
 Keep J ints in memory in canonical form, NReq=397907311.
 IVT=      188842 IEndB=      188842 NGot=  1879048192 MDV=  1487796790
 LenX=  1487796790 LenY=  1487740653
 Requested convergence on RMS density matrix=1.00D-08 within 128 cycles.
 Requested convergence on MAX density matrix=1.00D-06.
 Requested convergence on             energy=1.00D-06.
 No special actions if energy rises.
 FoFCou: FMM=F IPFlag=           0 FMFlag=           0 FMFlg1=           0
         NFxFlg=           0 DoJE=F BraDBF=F KetDBF=F FulRan=T
         wScrn=  0.000000 ICntrl=     600 IOpCl=  0 I1Cent=           0 NGrid=           0
         NMat0=    1 NMatS0=  27966 NMatT0=    0 NMatD0=    1 NMtDS0=    0 NMtDT0=    0
 Symmetry not used in FoFCou.
 Integral accuracy reduced to 1.0D-05 until final iterations.

 Cycle   1  Pass 0  IDiag  1:
 E= -631.133136737191    
 DIIS: error= 2.98D-02 at cycle   1 NSaved=   1.
 NSaved= 1 IEnMin= 1 EnMin= -631.133136737191     IErMin= 1 ErrMin= 2.98D-02
 ErrMax= 2.98D-02  0.00D+00 EMaxC= 1.00D-01 BMatC= 2.76D-01 BMatP= 2.76D-01
 IDIUse=3 WtCom= 7.02D-01 WtEn= 2.98D-01
 Coeff-Com:  0.100D+01
 Coeff-En:   0.100D+01
 Coeff:      0.100D+01
 Gap=     0.132 Goal=   None    Shift=    0.000
 GapD=    0.132 DampG=1.000 DampE=0.500 DampFc=0.5000 IDamp=-1.
 Damping current iteration by 5.00D-01
 RMSDP=6.13D-03 MaxDP=1.84D-01              OVMax= 3.00D-01

 Cycle   2  Pass 0  IDiag  1:
 E= -631.204064130104     Delta-E=       -0.070927392913 Rises=F Damp=T
 DIIS: error= 1.26D-02 at cycle   2 NSaved=   2.
 NSaved= 2 IEnMin= 2 EnMin= -631.204064130104     IErMin= 2 ErrMin= 1.26D-02
 ErrMax= 1.26D-02  0.00D+00 EMaxC= 1.00D-01 BMatC= 4.84D-02 BMatP= 2.76D-01
 IDIUse=3 WtCom= 8.74D-01 WtEn= 1.26D-01
 Coeff-Com:  0.246D+00 0.754D+00
 Coeff-En:   0.362D+00 0.638D+00
 Coeff:      0.260D+00 0.740D+00
 Gap=     0.089 Goal=   None    Shift=    0.000
 RMSDP=1.87D-03 MaxDP=8.86D-02 DE=-7.09D-02 OVMax= 2.22D-01

 Cycle   3  Pass 0  IDiag  1:
 E= -631.349179828333     Delta-E=       -0.145115698229 Rises=F Damp=F
 DIIS: error= 1.76D-02 at cycle   3 NSaved=   3.
 NSaved= 3 IEnMin= 3 EnMin= -631.349179828333     IErMin= 2 ErrMin= 1.26D-02
 ErrMax= 1.76D-02  0.00D+00 EMaxC= 1.00D-01 BMatC= 6.37D-02 BMatP= 4.84D-02
 IDIUse=2 WtCom= 0.00D+00 WtEn= 1.00D+00
 Coeff-En:   0.000D+00 0.000D+00 0.100D+01
 Coeff:      0.000D+00 0.000D+00 0.100D+01
 Gap=     0.126 Goal=   None    Shift=    0.000
 RMSDP=4.64D-03 MaxDP=2.42D-01 DE=-1.45D-01 OVMax= 4.06D-01

 Cycle   4  Pass 0  IDiag  1:
 E= -630.800529410329     Delta-E=        0.548650418004 Rises=F Damp=F
 DIIS: error= 5.93D-02 at cycle   4 NSaved=   4.
 NSaved= 4 IEnMin= 3 EnMin= -631.349179828333     IErMin= 2 ErrMin= 1.26D-02
 ErrMax= 5.93D-02  0.00D+00 EMaxC= 1.00D-01 BMatC= 6.62D-01 BMatP= 4.84D-02
 IDIUse=2 WtCom= 0.00D+00 WtEn= 1.00D+00
 Coeff-En:   0.000D+00 0.000D+00 0.850D+00 0.150D+00
 Coeff:      0.000D+00 0.000D+00 0.850D+00 0.150D+00
 Gap=     0.103 Goal=   None    Shift=    0.000
 RMSDP=2.63D-03 MaxDP=1.31D-01 DE= 5.49D-01 OVMax= 2.05D-01

 Cycle   5  Pass 0  IDiag  1:
 E= -631.346831028380     Delta-E=       -0.546301618051 Rises=F Damp=F
 DIIS: error= 1.87D-02 at cycle   5 NSaved=   5.
 NSaved= 5 IEnMin= 3 EnMin= -631.349179828333     IErMin= 2 ErrMin= 1.26D-02
 ErrMax= 1.87D-02  0.00D+00 EMaxC= 1.00D-01 BMatC= 6.77D-02 BMatP= 4.84D-02
 IDIUse=2 WtCom= 0.00D+00 WtEn= 1.00D+00
 Coeff-En:   0.000D+00 0.000D+00 0.507D+00 0.000D+00 0.493D+00
 Coeff:      0.000D+00 0.000D+00 0.507D+00 0.000D+00 0.493D+00
 Gap=     0.123 Goal=   None    Shift=    0.000
 RMSDP=1.17D-03 MaxDP=5.77D-02 DE=-5.46D-01 OVMax= 9.73D-02

 Cycle   6  Pass 0  IDiag  1:
 E= -631.408442716260     Delta-E=       -0.061611687881 Rises=F Damp=F
 DIIS: error= 9.32D-04 at cycle   6 NSaved=   6.
 NSaved= 6 IEnMin= 6 EnMin= -631.408442716260     IErMin= 6 ErrMin= 9.32D-04
 ErrMax= 9.32D-04  0.00D+00 EMaxC= 1.00D-01 BMatC= 6.84D-04 BMatP= 4.84D-02
 IDIUse=3 WtCom= 9.91D-01 WtEn= 9.32D-03
 Coeff-Com: -0.404D-02 0.244D-01 0.218D+00-0.397D-01 0.326D+00 0.476D+00
 Coeff-En:   0.000D+00 0.000D+00 0.000D+00 0.000D+00 0.000D+00 0.100D+01
 Coeff:     -0.400D-02 0.242D-01 0.216D+00-0.393D-01 0.323D+00 0.481D+00
 Gap=     0.105 Goal=   None    Shift=    0.000
 RMSDP=1.63D-04 MaxDP=5.92D-03 DE=-6.16D-02 OVMax= 1.78D-02

 Cycle   7  Pass 0  IDiag  1:
 E= -631.408981054923     Delta-E=       -0.000538338662 Rises=F Damp=F
 DIIS: error= 6.24D-04 at cycle   7 NSaved=   7.
 NSaved= 7 IEnMin= 7 EnMin= -631.408981054923     IErMin= 7 ErrMin= 6.24D-04
 ErrMax= 6.24D-04  0.00D+00 EMaxC= 1.00D-01 BMatC= 1.66D-04 BMatP= 6.84D-04
 IDIUse=3 WtCom= 9.94D-01 WtEn= 6.24D-03
 Coeff-Com: -0.311D-02 0.190D-01 0.118D+00-0.279D-01 0.183D+00 0.324D+00
 Coeff-Com:  0.387D+00
 Coeff-En:   0.000D+00 0.000D+00 0.000D+00 0.000D+00 0.000D+00 0.182D+00
 Coeff-En:   0.818D+00
 Coeff:     -0.310D-02 0.188D-01 0.117D+00-0.277D-01 0.182D+00 0.323D+00
 Coeff:      0.389D+00
 Gap=     0.103 Goal=   None    Shift=    0.000
 RMSDP=7.18D-05 MaxDP=2.26D-03 DE=-5.38D-04 OVMax= 7.93D-03

 Cycle   8  Pass 0  IDiag  1:
 E= -631.409125880934     Delta-E=       -0.000144826011 Rises=F Damp=F
 DIIS: error= 3.80D-04 at cycle   8 NSaved=   8.
 NSaved= 8 IEnMin= 8 EnMin= -631.409125880934     IErMin= 8 ErrMin= 3.80D-04
 ErrMax= 3.80D-04  0.00D+00 EMaxC= 1.00D-01 BMatC= 2.93D-05 BMatP= 1.66D-04
 IDIUse=3 WtCom= 9.96D-01 WtEn= 3.80D-03
 Coeff-Com: -0.724D-03 0.692D-02 0.422D-01-0.111D-01 0.598D-01 0.137D+00
 Coeff-Com:  0.270D+00 0.496D+00
 Coeff-En:   0.000D+00 0.000D+00 0.000D+00 0.000D+00 0.000D+00 0.000D+00
 Coeff-En:   0.669D-01 0.933D+00
 Coeff:     -0.721D-03 0.689D-02 0.421D-01-0.111D-01 0.596D-01 0.136D+00
 Coeff:      0.269D+00 0.498D+00
 Gap=     0.103 Goal=   None    Shift=    0.000
 RMSDP=2.98D-05 MaxDP=1.03D-03 DE=-1.45D-04 OVMax= 2.13D-03

 Cycle   9  Pass 0  IDiag  1:
 E= -631.409148051411     Delta-E=       -0.000022170477 Rises=F Damp=F
 DIIS: error= 1.15D-04 at cycle   9 NSaved=   9.
 NSaved= 9 IEnMin= 9 EnMin= -631.409148051411     IErMin= 9 ErrMin= 1.15D-04
 ErrMax= 1.15D-04  0.00D+00 EMaxC= 1.00D-01 BMatC= 6.93D-06 BMatP= 2.93D-05
 IDIUse=3 WtCom= 9.99D-01 WtEn= 1.15D-03
 Coeff-Com:  0.357D-03-0.172D-03 0.785D-02-0.136D-02 0.308D-02 0.341D-01
 Coeff-Com:  0.105D+00 0.376D+00 0.475D+00
 Coeff-En:   0.000D+00 0.000D+00 0.000D+00 0.000D+00 0.000D+00 0.000D+00
 Coeff-En:   0.000D+00 0.169D+00 0.831D+00
 Coeff:      0.356D-03-0.172D-03 0.784D-02-0.136D-02 0.308D-02 0.340D-01
 Coeff:      0.105D+00 0.376D+00 0.476D+00
 Gap=     0.103 Goal=   None    Shift=    0.000
 RMSDP=1.33D-05 MaxDP=4.69D-04 DE=-2.22D-05 OVMax= 1.37D-03

 Cycle  10  Pass 0  IDiag  1:
 E= -631.409155079801     Delta-E=       -0.000007028390 Rises=F Damp=F
 DIIS: error= 2.65D-05 at cycle  10 NSaved=  10.
 NSaved=10 IEnMin=10 EnMin= -631.409155079801     IErMin=10 ErrMin= 2.65D-05
 ErrMax= 2.65D-05  0.00D+00 EMaxC= 1.00D-01 BMatC= 2.91D-07 BMatP= 6.93D-06
 IDIUse=1 WtCom= 1.00D+00 WtEn= 0.00D+00
 Coeff-Com:  0.272D-03-0.451D-03 0.370D-02-0.431D-03-0.430D-04 0.166D-01
 Coeff-Com:  0.544D-01 0.215D+00 0.306D+00 0.406D+00
 Coeff:      0.272D-03-0.451D-03 0.370D-02-0.431D-03-0.430D-04 0.166D-01
 Coeff:      0.544D-01 0.215D+00 0.306D+00 0.406D+00
 Gap=     0.103 Goal=   None    Shift=    0.000
 RMSDP=2.93D-06 MaxDP=1.26D-04 DE=-7.03D-06 OVMax= 2.69D-04

 Initial convergence to 1.0D-05 achieved.  Increase integral accuracy.
 Cycle  11  Pass 1  IDiag  1:
 E= -631.409148778422     Delta-E=        0.000006301380 Rises=F Damp=F
 DIIS: error= 4.42D-05 at cycle   1 NSaved=   1.
 NSaved= 1 IEnMin= 1 EnMin= -631.409148778422     IErMin= 1 ErrMin= 4.42D-05
 ErrMax= 4.42D-05  0.00D+00 EMaxC= 1.00D-01 BMatC= 1.38D-07 BMatP= 1.38D-07
 IDIUse=1 WtCom= 1.00D+00 WtEn= 0.00D+00
 Coeff-Com:  0.100D+01
 Coeff:      0.100D+01
 Gap=     0.103 Goal=   None    Shift=    0.000
 RMSDP=2.93D-06 MaxDP=1.26D-04 DE= 6.30D-06 OVMax= 2.24D-04

 Cycle  12  Pass 1  IDiag  1:
 E= -631.409148768382     Delta-E=        0.000000010040 Rises=F Damp=F
 DIIS: error= 2.59D-05 at cycle   2 NSaved=   2.
 NSaved= 2 IEnMin= 1 EnMin= -631.409148778422     IErMin= 2 ErrMin= 2.59D-05
 ErrMax= 2.59D-05  0.00D+00 EMaxC= 1.00D-01 BMatC= 1.86D-07 BMatP= 1.38D-07
 IDIUse=1 WtCom= 1.00D+00 WtEn= 0.00D+00
 Coeff-Com:  0.551D+00 0.449D+00
 Coeff:      0.551D+00 0.449D+00
 Gap=     0.103 Goal=   None    Shift=    0.000
 RMSDP=3.31D-06 MaxDP=1.33D-04 DE= 1.00D-08 OVMax= 2.68D-04

 Cycle  13  Pass 1  IDiag  1:
 E= -631.409148872042     Delta-E=       -0.000000103660 Rises=F Damp=F
 DIIS: error= 1.80D-05 at cycle   3 NSaved=   3.
 NSaved= 3 IEnMin= 3 EnMin= -631.409148872042     IErMin= 3 ErrMin= 1.80D-05
 ErrMax= 1.80D-05  0.00D+00 EMaxC= 1.00D-01 BMatC= 8.27D-08 BMatP= 1.38D-07
 IDIUse=1 WtCom= 1.00D+00 WtEn= 0.00D+00
 Coeff-Com:  0.606D-01 0.387D+00 0.552D+00
 Coeff:      0.606D-01 0.387D+00 0.552D+00
 Gap=     0.103 Goal=   None    Shift=    0.000
 RMSDP=1.66D-06 MaxDP=8.25D-05 DE=-1.04D-07 OVMax= 1.58D-04

 Cycle  14  Pass 1  IDiag  1:
 E= -631.409148942405     Delta-E=       -0.000000070363 Rises=F Damp=F
 DIIS: error= 6.32D-06 at cycle   4 NSaved=   4.
 NSaved= 4 IEnMin= 4 EnMin= -631.409148942405     IErMin= 4 ErrMin= 6.32D-06
 ErrMax= 6.32D-06  0.00D+00 EMaxC= 1.00D-01 BMatC= 1.63D-08 BMatP= 8.27D-08
 IDIUse=1 WtCom= 1.00D+00 WtEn= 0.00D+00
 Coeff-Com:  0.309D-02 0.258D+00 0.418D+00 0.321D+00
 Coeff:      0.309D-02 0.258D+00 0.418D+00 0.321D+00
 Gap=     0.103 Goal=   None    Shift=    0.000
 RMSDP=6.08D-07 MaxDP=2.61D-05 DE=-7.04D-08 OVMax= 6.44D-05

 Cycle  15  Pass 1  IDiag  1:
 E= -631.409148957375     Delta-E=       -0.000000014970 Rises=F Damp=F
 DIIS: error= 1.47D-06 at cycle   5 NSaved=   5.
 NSaved= 5 IEnMin= 5 EnMin= -631.409148957375     IErMin= 5 ErrMin= 1.47D-06
 ErrMax= 1.47D-06  0.00D+00 EMaxC= 1.00D-01 BMatC= 6.05D-10 BMatP= 1.63D-08
 IDIUse=1 WtCom= 1.00D+00 WtEn= 0.00D+00
 Coeff-Com: -0.315D-02 0.134D+00 0.228D+00 0.211D+00 0.430D+00
 Coeff:     -0.315D-02 0.134D+00 0.228D+00 0.211D+00 0.430D+00
 Gap=     0.103 Goal=   None    Shift=    0.000
 RMSDP=1.39D-07 MaxDP=3.81D-06 DE=-1.50D-08 OVMax= 1.35D-05

 Cycle  16  Pass 1  IDiag  1:
 E= -631.409148957924     Delta-E=       -0.000000000549 Rises=F Damp=F
 DIIS: error= 2.58D-07 at cycle   6 NSaved=   6.
 NSaved= 6 IEnMin= 6 EnMin= -631.409148957924     IErMin= 6 ErrMin= 2.58D-07
 ErrMax= 2.58D-07  0.00D+00 EMaxC= 1.00D-01 BMatC= 5.01D-11 BMatP= 6.05D-10
 IDIUse=1 WtCom= 1.00D+00 WtEn= 0.00D+00
 Coeff-Com: -0.183D-02 0.512D-01 0.908D-01 0.913D-01 0.271D+00 0.498D+00
 Coeff:     -0.183D-02 0.512D-01 0.908D-01 0.913D-01 0.271D+00 0.498D+00
 Gap=     0.103 Goal=   None    Shift=    0.000
 RMSDP=4.12D-08 MaxDP=1.17D-06 DE=-5.49D-10 OVMax= 3.37D-06

 Cycle  17  Pass 1  IDiag  1:
 E= -631.409148957972     Delta-E=       -0.000000000048 Rises=F Damp=F
 DIIS: error= 1.09D-07 at cycle   7 NSaved=   7.
 NSaved= 7 IEnMin= 7 EnMin= -631.409148957972     IErMin= 7 ErrMin= 1.09D-07
 ErrMax= 1.09D-07  0.00D+00 EMaxC= 1.00D-01 BMatC= 5.14D-12 BMatP= 5.01D-11
 IDIUse=1 WtCom= 1.00D+00 WtEn= 0.00D+00
 Coeff-Com: -0.831D-03 0.204D-01 0.371D-01 0.396D-01 0.136D+00 0.313D+00
 Coeff-Com:  0.454D+00
 Coeff:     -0.831D-03 0.204D-01 0.371D-01 0.396D-01 0.136D+00 0.313D+00
 Coeff:      0.454D+00
 Gap=     0.103 Goal=   None    Shift=    0.000
 RMSDP=1.45D-08 MaxDP=4.86D-07 DE=-4.82D-11 OVMax= 1.19D-06

 Cycle  18  Pass 1  IDiag  1:
 E= -631.409148957947     Delta-E=        0.000000000025 Rises=F Damp=F
 DIIS: error= 5.54D-08 at cycle   8 NSaved=   8.
 NSaved= 8 IEnMin= 7 EnMin= -631.409148957972     IErMin= 8 ErrMin= 5.54D-08
 ErrMax= 5.54D-08  0.00D+00 EMaxC= 1.00D-01 BMatC= 1.02D-12 BMatP= 5.14D-12
 IDIUse=1 WtCom= 1.00D+00 WtEn= 0.00D+00
 Coeff-Com: -0.354D-03 0.769D-02 0.141D-01 0.159D-01 0.590D-01 0.148D+00
 Coeff-Com:  0.324D+00 0.432D+00
 Coeff:     -0.354D-03 0.769D-02 0.141D-01 0.159D-01 0.590D-01 0.148D+00
 Coeff:      0.324D+00 0.432D+00
 Gap=     0.103 Goal=   None    Shift=    0.000
 RMSDP=5.87D-09 MaxDP=1.81D-07 DE= 2.48D-11 OVMax= 4.88D-07

 SCF Done:  E(RPBE-PBE) =  -631.409148958     A.U. after   18 cycles
            NFock= 18  Conv=0.59D-08     -V/T= 2.0092
 KE= 6.256275790732D+02 PE=-3.133810723858D+03 EE= 1.044881067891D+03
 Leave Link  502 at Wed Feb 14 14:11:36 2018, MaxMem=  1879048192 cpu:        77.0
 (Enter /share/apps/gaussian/g09_D01/g09/l601.exe)
 Copying SCF densities to generalized density rwf, IOpCl= 0 IROHF=0.

 **********************************************************************

            Population analysis using the SCF density.

 **********************************************************************

 Orbital symmetries:
       Occupied  (A) (A) (A) (A) (A) (A) (A) (A) (A) (A) (A) (A)
                 (A) (A) (A) (A) (A) (A) (A) (A) (A) (A) (A) (A)
                 (A) (A) (A) (A) (A) (A) (A) (A) (A) (A) (A) (A)
                 (A) (A) (A) (A) (A) (A) (A) (A) (A) (A) (A) (A)
                 (A) (A) (A)
       Virtual   (A) (A) (A) (A) (A) (A) (A) (A) (A) (A) (A) (A)
                 (A) (A) (A) (A) (A) (A) (A) (A) (A) (A) (A) (A)
                 (A) (A) (A) (A) (A) (A) (A) (A) (A) (A) (A) (A)
                 (A) (A) (A) (A) (A) (A) (A) (A) (A) (A) (A) (A)
                 (A) (A) (A) (A) (A) (A) (A) (A) (A) (A) (A) (A)
                 (A) (A) (A) (A) (A) (A) (A) (A) (A) (A) (A) (A)
                 (A) (A) (A) (A) (A) (A) (A) (A) (A) (A) (A) (A)
                 (A) (A) (A) (A) (A) (A) (A) (A) (A) (A) (A) (A)
                 (A) (A) (A) (A) (A) (A) (A) (A) (A) (A) (A) (A)
                 (A) (A) (A) (A) (A) (A) (A) (A) (A) (A) (A) (A)
                 (A) (A) (A) (A) (A) (A) (A) (A) (A) (A) (A) (A)
                 (A) (A) (A) (A) (A) (A) (A) (A) (A) (A) (A) (A)
                 (A) (A) (A) (A) (A) (A) (A) (A) (A) (A) (A) (A)
                 (A) (A) (A) (A) (A) (A) (A) (A) (A) (A) (A) (A)
                 (A) (A) (A) (A) (A) (A) (A) (A) (A) (A) (A) (A)
                 (A) (A) (A) (A) (A)
 The electronic state is 1-A.
 Alpha  occ. eigenvalues --  -18.77004 -18.75730 -14.05206  -9.98003  -9.95362
 Alpha  occ. eigenvalues --   -9.94171  -9.93977  -9.93873  -9.90330  -9.90158
 Alpha  occ. eigenvalues --   -9.89958  -9.89316  -9.89000  -9.88888  -0.95609
 Alpha  occ. eigenvalues --   -0.92438  -0.86919  -0.77133  -0.70983  -0.68150
 Alpha  occ. eigenvalues --   -0.66710  -0.66094  -0.61706  -0.56814  -0.53943
 Alpha  occ. eigenvalues --   -0.52548  -0.49241  -0.47113  -0.44780  -0.44066
 Alpha  occ. eigenvalues --   -0.42766  -0.42490  -0.40382  -0.38727  -0.37893
 Alpha  occ. eigenvalues --   -0.37172  -0.36654  -0.36592  -0.35772  -0.35200
 Alpha  occ. eigenvalues --   -0.33087  -0.32748  -0.32558  -0.31452  -0.28725
 Alpha  occ. eigenvalues --   -0.28142  -0.27521  -0.22420  -0.20319  -0.19179
 Alpha  occ. eigenvalues --   -0.18183
 Alpha virt. eigenvalues --   -0.07854  -0.02063  -0.00484   0.05109   0.05627
 Alpha virt. eigenvalues --    0.06305   0.08183   0.09262   0.10436   0.10743
 Alpha virt. eigenvalues --    0.11895   0.13074   0.13669   0.13929   0.14769
 Alpha virt. eigenvalues --    0.15400   0.15996   0.16815   0.17820   0.19766
 Alpha virt. eigenvalues --    0.21549   0.22824   0.24109   0.26993   0.29510
 Alpha virt. eigenvalues --    0.30671   0.31686   0.35704   0.36653   0.38095
 Alpha virt. eigenvalues --    0.44486   0.45223   0.46910   0.47665   0.48262
 Alpha virt. eigenvalues --    0.49028   0.50746   0.51213   0.51961   0.52541
 Alpha virt. eigenvalues --    0.52698   0.54993   0.56086   0.56561   0.56968
 Alpha virt. eigenvalues --    0.57716   0.58770   0.59076   0.60128   0.61575
 Alpha virt. eigenvalues --    0.61705   0.65108   0.66269   0.66734   0.67812
 Alpha virt. eigenvalues --    0.70087   0.73680   0.73982   0.75633   0.76427
 Alpha virt. eigenvalues --    0.77808   0.78286   0.78865   0.79796   0.81107
 Alpha virt. eigenvalues --    0.82110   0.84265   0.84941   0.86801   0.87416
 Alpha virt. eigenvalues --    0.88150   0.88979   0.89302   0.91224   0.92086
 Alpha virt. eigenvalues --    0.93545   0.94431   0.96776   0.97090   0.97524
 Alpha virt. eigenvalues --    1.01254   1.02729   1.05765   1.06271   1.09458
 Alpha virt. eigenvalues --    1.10215   1.13240   1.16067   1.18300   1.18719
 Alpha virt. eigenvalues --    1.22364   1.22583   1.24400   1.26072   1.29525
 Alpha virt. eigenvalues --    1.32101   1.32904   1.34657   1.36302   1.37332
 Alpha virt. eigenvalues --    1.38500   1.40647   1.41834   1.43582   1.44250
 Alpha virt. eigenvalues --    1.45493   1.49932   1.52001   1.62627   1.64832
 Alpha virt. eigenvalues --    1.66329   1.69990   1.71241   1.72545   1.73434
 Alpha virt. eigenvalues --    1.74290   1.74896   1.78799   1.81074   1.82488
 Alpha virt. eigenvalues --    1.84147   1.85376   1.86612   1.87843   1.89803
 Alpha virt. eigenvalues --    1.90534   1.92900   1.93916   1.94979   1.96729
 Alpha virt. eigenvalues --    1.98947   2.00817   2.04914   2.06301   2.06586
 Alpha virt. eigenvalues --    2.08844   2.12182   2.14337   2.16528   2.17656
 Alpha virt. eigenvalues --    2.19804   2.22513   2.23088   2.23882   2.24902
 Alpha virt. eigenvalues --    2.28893   2.30926   2.34165   2.42178   2.43223
 Alpha virt. eigenvalues --    2.43510   2.46476   2.49276   2.51322   2.52437
 Alpha virt. eigenvalues --    2.54759   2.57245   2.60526   2.62109   2.65559
 Alpha virt. eigenvalues --    2.68658   2.71393   2.75723   2.78766   2.83158
 Alpha virt. eigenvalues --    2.88004   2.93635   2.96292   3.05225   3.16142
 Alpha virt. eigenvalues --    3.37089   3.90033   3.91376   3.95146   4.02063
 Alpha virt. eigenvalues --    4.05466   4.09603   4.13813   4.16049   4.19676
 Alpha virt. eigenvalues --    4.28069   4.32468   4.36549   4.58192   4.70014
          Condensed to atoms (all electrons):
               1          2          3          4          5          6
     1  C    5.172243   0.301702   0.378994   0.467507  -0.087111  -0.069196
     2  C    0.301702   4.654026  -0.038462  -0.049123   0.358674   0.450579
     3  C    0.378994  -0.038462   4.713144  -0.038010   0.006982  -0.005047
     4  C    0.467507  -0.049123  -0.038010   5.051582  -0.004756   0.004710
     5  C   -0.087111   0.358674   0.006982  -0.004756   5.269028  -0.102038
     6  O   -0.069196   0.450579  -0.005047   0.004710  -0.102038   8.189313
     7  C   -0.054423   0.005977   0.489425  -0.041884  -0.000200   0.000601
     8  O   -0.062566  -0.004260   0.331374   0.004601  -0.000184  -0.054569
     9  C   -0.010107   0.005998  -0.045694   0.521352   0.000153  -0.000033
    10  H   -0.041704  -0.012868   0.004601   0.346555   0.004715   0.000027
    11  C    0.010472   0.009145  -0.000184   0.000150   0.521951  -0.000225
    12  H   -0.007673  -0.029774   0.000030   0.002674   0.347719   0.002839
    13  C   -0.037227   0.000299  -0.008704  -0.030923  -0.000007  -0.000022
    14  H    0.007870  -0.000118  -0.036148   0.000363   0.000002   0.000017
    15  H   -0.017550  -0.007445  -0.024281  -0.000021   0.002637   0.095461
    16  H    0.004166  -0.000132   0.000827  -0.042282   0.000014   0.000001
    17  H    0.001139  -0.010290   0.000007  -0.000030  -0.056969   0.022018
    18  N   -0.000090   0.002063   0.000000   0.000002  -0.033554   0.000339
    19  H    0.000544   0.000005   0.005147   0.005834   0.000000   0.000000
    20  C    0.000004   0.000059   0.000000  -0.000005  -0.008150   0.000001
    21  C    0.000002  -0.000039   0.000000   0.000000   0.003738   0.000016
    22  H   -0.000001   0.000149   0.000000  -0.000005   0.004206   0.000000
    23  H    0.000000   0.000000   0.000000   0.000000   0.000283   0.000000
    24  H    0.000003  -0.000056   0.000000  -0.000003   0.004875  -0.000001
    25  H    0.000000  -0.000005   0.000000   0.000000   0.000100  -0.000008
    26  H    0.000000   0.000003   0.000000   0.000000   0.000691  -0.000003
    27  H    0.000000   0.000001   0.000000   0.000000  -0.000183   0.000000
               7          8          9         10         11         12
     1  C   -0.054423  -0.062566  -0.010107  -0.041704   0.010472  -0.007673
     2  C    0.005977  -0.004260   0.005998  -0.012868   0.009145  -0.029774
     3  C    0.489425   0.331374  -0.045694   0.004601  -0.000184   0.000030
     4  C   -0.041884   0.004601   0.521352   0.346555   0.000150   0.002674
     5  C   -0.000200  -0.000184   0.000153   0.004715   0.521951   0.347719
     6  O    0.000601  -0.054569  -0.000033   0.000027  -0.000225   0.002839
     7  C    5.006585  -0.060381  -0.029200   0.000501   0.000000   0.000005
     8  O   -0.060381   8.267775   0.000099  -0.000052   0.000014   0.000005
     9  C   -0.029200   0.000099   4.915645  -0.047414  -0.000011   0.000397
    10  H    0.000501  -0.000052  -0.047414   0.604345   0.000199   0.007080
    11  C    0.000000   0.000014  -0.000011   0.000199   4.847027  -0.058147
    12  H    0.000005   0.000005   0.000397   0.007080  -0.058147   0.590406
    13  C    0.536416   0.003653   0.520760   0.005632   0.000001  -0.000004
    14  H    0.342696  -0.000111   0.005658   0.000020   0.000000   0.000000
    15  H    0.004765   0.196574  -0.000005   0.000003  -0.000024  -0.000078
    16  H    0.005160   0.000002   0.358311  -0.006563   0.000000  -0.000008
    17  H    0.000000   0.000015   0.000000  -0.000005   0.358604   0.006209
    18  N    0.000000   0.000000   0.000000  -0.000003   0.333107  -0.009340
    19  H   -0.043669  -0.000067  -0.046322  -0.000237   0.000000   0.000000
    20  C    0.000000   0.000000   0.000000  -0.000026  -0.046042   0.007256
    21  C    0.000000   0.000000   0.000000   0.000000  -0.048747   0.000080
    22  H    0.000000   0.000000   0.000000   0.000000  -0.005884   0.002298
    23  H    0.000000   0.000000   0.000000   0.000000   0.004302  -0.000099
    24  H    0.000000   0.000000   0.000000  -0.000008  -0.004084   0.001168
    25  H    0.000000   0.000000   0.000000   0.000000  -0.001754   0.000004
    26  H    0.000000   0.000000   0.000000   0.000000  -0.003258   0.000011
    27  H    0.000000   0.000000   0.000000   0.000000   0.004209   0.000002
              13         14         15         16         17         18
     1  C   -0.037227   0.007870  -0.017550   0.004166   0.001139  -0.000090
     2  C    0.000299  -0.000118  -0.007445  -0.000132  -0.010290   0.002063
     3  C   -0.008704  -0.036148  -0.024281   0.000827   0.000007   0.000000
     4  C   -0.030923   0.000363  -0.000021  -0.042282  -0.000030   0.000002
     5  C   -0.000007   0.000002   0.002637   0.000014  -0.056969  -0.033554
     6  O   -0.000022   0.000017   0.095461   0.000001   0.022018   0.000339
     7  C    0.536416   0.342696   0.004765   0.005160   0.000000   0.000000
     8  O    0.003653  -0.000111   0.196574   0.000002   0.000015   0.000000
     9  C    0.520760   0.005658  -0.000005   0.358311   0.000000   0.000000
    10  H    0.005632   0.000020   0.000003  -0.006563  -0.000005  -0.000003
    11  C    0.000001   0.000000  -0.000024   0.000000   0.358604   0.333107
    12  H   -0.000004   0.000000  -0.000078  -0.000008   0.006209  -0.009340
    13  C    4.880232  -0.047512  -0.000195  -0.045211   0.000000   0.000000
    14  H   -0.047512   0.588227   0.000074  -0.000180   0.000000   0.000000
    15  H   -0.000195   0.000074   0.318429   0.000000  -0.000127   0.000000
    16  H   -0.045211  -0.000180   0.000000   0.601404   0.000000   0.000000
    17  H    0.000000   0.000000  -0.000127   0.000000   0.549894  -0.052690
    18  N    0.000000   0.000000   0.000000   0.000000  -0.052690   6.723037
    19  H    0.357059  -0.007600   0.000004  -0.006423   0.000000   0.000000
    20  C    0.000000   0.000000   0.000000   0.000000   0.005273   0.307127
    21  C    0.000000   0.000000   0.000000   0.000000  -0.003957   0.313144
    22  H    0.000000   0.000000   0.000000   0.000000  -0.000039  -0.033001
    23  H    0.000000   0.000000   0.000000   0.000000  -0.000138  -0.034604
    24  H    0.000000   0.000000   0.000000   0.000000  -0.000085  -0.042281
    25  H    0.000000   0.000000   0.000000   0.000000   0.006276  -0.034194
    26  H    0.000000   0.000000   0.000000   0.000000  -0.000145  -0.042414
    27  H    0.000000   0.000000   0.000000   0.000000   0.000103  -0.038298
              19         20         21         22         23         24
     1  C    0.000544   0.000004   0.000002  -0.000001   0.000000   0.000003
     2  C    0.000005   0.000059  -0.000039   0.000149   0.000000  -0.000056
     3  C    0.005147   0.000000   0.000000   0.000000   0.000000   0.000000
     4  C    0.005834  -0.000005   0.000000  -0.000005   0.000000  -0.000003
     5  C    0.000000  -0.008150   0.003738   0.004206   0.000283   0.004875
     6  O    0.000000   0.000001   0.000016   0.000000   0.000000  -0.000001
     7  C   -0.043669   0.000000   0.000000   0.000000   0.000000   0.000000
     8  O   -0.000067   0.000000   0.000000   0.000000   0.000000   0.000000
     9  C   -0.046322   0.000000   0.000000   0.000000   0.000000   0.000000
    10  H   -0.000237  -0.000026   0.000000   0.000000   0.000000  -0.000008
    11  C    0.000000  -0.046042  -0.048747  -0.005884   0.004302  -0.004084
    12  H    0.000000   0.007256   0.000080   0.002298  -0.000099   0.001168
    13  C    0.357059   0.000000   0.000000   0.000000   0.000000   0.000000
    14  H   -0.007600   0.000000   0.000000   0.000000   0.000000   0.000000
    15  H    0.000004   0.000000   0.000000   0.000000   0.000000   0.000000
    16  H   -0.006423   0.000000   0.000000   0.000000   0.000000   0.000000
    17  H    0.000000   0.005273  -0.003957  -0.000039  -0.000138  -0.000085
    18  N    0.000000   0.307127   0.313144  -0.033001  -0.034604  -0.042281
    19  H    0.597187   0.000000   0.000000   0.000000   0.000000   0.000000
    20  C    0.000000   5.050840  -0.058581   0.373689   0.374784   0.360495
    21  C    0.000000  -0.058581   5.052365   0.005239  -0.003779  -0.002532
    22  H    0.000000   0.373689   0.005239   0.528649  -0.023504  -0.041158
    23  H    0.000000   0.374784  -0.003779  -0.023504   0.536750  -0.036337
    24  H    0.000000   0.360495  -0.002532  -0.041158  -0.036337   0.581568
    25  H    0.000000   0.005157   0.375561  -0.000190   0.000139  -0.000257
    26  H    0.000000  -0.002995   0.361142  -0.000349  -0.001323   0.007101
    27  H    0.000000  -0.002622   0.374310   0.000199   0.006495  -0.001336
              25         26         27
     1  C    0.000000   0.000000   0.000000
     2  C   -0.000005   0.000003   0.000001
     3  C    0.000000   0.000000   0.000000
     4  C    0.000000   0.000000   0.000000
     5  C    0.000100   0.000691  -0.000183
     6  O   -0.000008  -0.000003   0.000000
     7  C    0.000000   0.000000   0.000000
     8  O    0.000000   0.000000   0.000000
     9  C    0.000000   0.000000   0.000000
    10  H    0.000000   0.000000   0.000000
    11  C   -0.001754  -0.003258   0.004209
    12  H    0.000004   0.000011   0.000002
    13  C    0.000000   0.000000   0.000000
    14  H    0.000000   0.000000   0.000000
    15  H    0.000000   0.000000   0.000000
    16  H    0.000000   0.000000   0.000000
    17  H    0.006276  -0.000145   0.000103
    18  N   -0.034194  -0.042414  -0.038298
    19  H    0.000000   0.000000   0.000000
    20  C    0.005157  -0.002995  -0.002622
    21  C    0.375561   0.361142   0.374310
    22  H   -0.000190  -0.000349   0.000199
    23  H    0.000139  -0.001323   0.006495
    24  H   -0.000257   0.007101  -0.001336
    25  H    0.517539  -0.034678  -0.022439
    26  H   -0.034678   0.584475  -0.042217
    27  H   -0.022439  -0.042217   0.544882
 Mulliken charges:
               1
     1  C    0.043001
     2  C    0.363891
     3  C    0.265999
     4  C   -0.198286
     5  C   -0.232615
     6  O   -0.534779
     7  C   -0.162373
     8  O   -0.621924
     9  C   -0.149589
    10  H    0.135204
    11  C    0.079179
    12  H    0.136942
    13  C   -0.134248
    14  H    0.146742
    15  H    0.431778
    16  H    0.130916
    17  H    0.174937
    18  N   -0.358350
    19  H    0.138539
    20  C   -0.366263
    21  C   -0.367964
    22  H    0.189704
    23  H    0.177031
    24  H    0.172928
    25  H    0.188749
    26  H    0.173958
    27  H    0.176894
 Sum of Mulliken charges =   0.00000
 Mulliken charges with hydrogens summed into heavy atoms:
               1
     1  C    0.043001
     2  C    0.363891
     3  C    0.265999
     4  C   -0.063082
     5  C   -0.095673
     6  O   -0.534779
     7  C   -0.015631
     8  O   -0.190146
     9  C   -0.018673
    11  C    0.254116
    13  C    0.004291
    18  N   -0.358350
    20  C    0.173400
    21  C    0.171637
 Electronic spatial extent (au):  <R**2>=           3998.9803
 Charge=              0.0000 electrons
 Dipole moment (field-independent basis, Debye):
    X=              4.3722    Y=              3.2243    Z=              0.6038  Tot=              5.4660
 Quadrupole moment (field-independent basis, Debye-Ang):
   XX=            -62.3441   YY=            -81.0988   ZZ=            -85.4652
   XY=             -3.3493   XZ=              2.1956   YZ=             -0.3869
 Traceless Quadrupole moment (field-independent basis, Debye-Ang):
   XX=             13.9586   YY=             -4.7961   ZZ=             -9.1625
   XY=             -3.3493   XZ=              2.1956   YZ=             -0.3869
 Octapole moment (field-independent basis, Debye-Ang**2):
  XXX=             68.5644  YYY=              6.7729  ZZZ=              1.0041  XYY=             17.2904
  XXY=             14.7681  XXZ=             10.9486  XZZ=              6.0120  YZZ=             -7.5565
  YYZ=             -0.9445  XYZ=             -1.7655
 Hexadecapole moment (field-independent basis, Debye-Ang**3):
 XXXX=          -3717.2443 YYYY=           -855.3753 ZZZZ=           -106.5113 XXXY=            -28.2817
 XXXZ=             25.4215 YYYX=            -16.3816 YYYZ=             -0.5626 ZZZX=              8.1477
 ZZZY=              0.1138 XXYY=           -828.3266 XXZZ=           -781.4300 YYZZ=           -168.3241
 XXYZ=             -3.8442 YYXZ=             -4.5664 ZZXY=             15.7478
 N-N= 8.318929279354D+02 E-N=-3.133810722465D+03  KE= 6.256275790732D+02
 No NMR shielding tensors so no spin-rotation constants.
 Leave Link  601 at Wed Feb 14 14:11:36 2018, MaxMem=  1879048192 cpu:         0.4
 (Enter /share/apps/gaussian/g09_D01/g09/l602.exe)
 FitSet:  NAtFit=    27 NAtPot=    27 NAtFrz=     0 MDM=    31 TotChg=   0.00000
 Merz-Kollman atomic radii used.

 **********************************************************************

            Electrostatic Properties Using The SCF Density

 **********************************************************************

       Atomic Center    1 is at  -1.374629  0.056873 -0.017871
       Atomic Center    2 is at  -0.016128 -0.611950 -0.074270
       Atomic Center    3 is at  -2.514207 -0.771288  0.016367
       Atomic Center    4 is at  -1.554270  1.443239  0.001334
       Atomic Center    5 is at   1.236707  0.210531 -0.108438
       Atomic Center    6 is at   0.050703 -1.851125 -0.087562
       Atomic Center    7 is at  -3.793345 -0.191113  0.068599
       Atomic Center    8 is at  -2.433645 -2.142738  0.001268
       Atomic Center    9 is at  -2.810705  2.003453  0.052644
       Atomic Center   10 is at  -0.693566  2.097035 -0.024493
       Atomic Center   11 is at   2.410907 -0.405372 -0.143486
       Atomic Center   12 is at   1.154871  1.281278 -0.105159
       Atomic Center   13 is at  -3.933944  1.175964  0.086261
       Atomic Center   14 is at  -4.653886 -0.844786  0.094139
       Atomic Center   15 is at  -1.452039 -2.321964 -0.037572
       Atomic Center   16 is at  -2.926814  3.077784  0.066633
       Atomic Center   17 is at   2.426604 -1.493676 -0.135945
       Atomic Center   18 is at   3.698206  0.175962 -0.262361
       Atomic Center   19 is at  -4.924129  1.614857  0.126601
       Atomic Center   20 is at   3.800580  1.634638 -0.055764
       Atomic Center   21 is at   4.797033 -0.598741  0.355476
       Atomic Center   22 is at   3.151876  2.151602 -0.760326
       Atomic Center   23 is at   4.827063  1.941819 -0.245924
       Atomic Center   24 is at   3.527629  1.936693  0.959033
       Atomic Center   25 is at   4.697327 -1.647019  0.080363
       Atomic Center   26 is at   4.803782 -0.522556  1.446475
       Atomic Center   27 is at   5.749391 -0.229305 -0.022054
    1135 points will be used for fitting atomic charges
 Fitting point charges to electrostatic potential
 Charges from ESP fit, RMS=   0.00132 RRMS=   0.08028:
 ESP charges:
               1
     1  C   -0.274367
     2  C    0.504959
     3  C    0.418362
     4  C   -0.082252
     5  C   -0.424062
     6  O   -0.491245
     7  C   -0.279059
     8  O   -0.546718
     9  C   -0.186519
    10  H    0.110871
    11  C    0.104939
    12  H    0.176247
    13  C   -0.076400
    14  H    0.167471
    15  H    0.427943
    16  H    0.128940
    17  H    0.118819
    18  N   -0.129837
    19  H    0.125244
    20  C   -0.237196
    21  C   -0.283542
    22  H    0.112184
    23  H    0.124602
    24  H    0.111004
    25  H    0.123198
    26  H    0.130363
    27  H    0.126051
 Sum of ESP charges =   0.00000
 ESP charges with hydrogens summed into heavy atoms:
               1
     1  C   -0.274367
     2  C    0.504959
     3  C    0.418362
     4  C    0.028619
     5  C   -0.247815
     6  O   -0.491245
     7  C   -0.111588
     8  O   -0.118775
     9  C   -0.057578
    11  C    0.223758
    13  C    0.048844
    18  N   -0.129837
    20  C    0.110594
    21  C    0.096070
 Charge=   0.00000 Dipole=     4.4051     3.2431     0.6305 Tot=     5.5063
 -----------------------------------------------------------------

              Electrostatic Properties (Atomic Units)

 -----------------------------------------------------------------
    Center     Electric         -------- Electric Field --------
               Potential          X             Y             Z
 -----------------------------------------------------------------
    1 Atom    -14.730065
    2 Atom    -14.653948
    3 Atom    -14.679540
    4 Atom    -14.733454
    5 Atom    -14.740920
    6 Atom    -22.313246
    7 Atom    -14.745983
    8 Atom    -22.295939
    9 Atom    -14.744259
   10 Atom     -1.100558
   11 Atom    -14.692961
   12 Atom     -1.093432
   13 Atom    -14.735582
   14 Atom     -1.109470
   15 Atom     -1.003374
   16 Atom     -1.109503
   17 Atom     -1.089038
   18 Atom    -18.282438
   19 Atom     -1.106227
   20 Atom    -14.690750
   21 Atom    -14.689867
   22 Atom     -1.088623
   23 Atom     -1.086549
   24 Atom     -1.092134
   25 Atom     -1.086629
   26 Atom     -1.094788
   27 Atom     -1.090039
 -----------------------------------------------------------------
 Leave Link  602 at Wed Feb 14 14:11:37 2018, MaxMem=  1879048192 cpu:         0.4
 (Enter /share/apps/gaussian/g09_D01/g09/l701.exe)
 Compute integral first derivatives.
 ... and contract with generalized density number  0.
 Leave Link  701 at Wed Feb 14 14:11:38 2018, MaxMem=  1879048192 cpu:         0.4
 (Enter /share/apps/gaussian/g09_D01/g09/l702.exe)
 L702 exits ... SP integral derivatives will be done elsewhere.
 Leave Link  702 at Wed Feb 14 14:11:39 2018, MaxMem=  1879048192 cpu:         0.0
 (Enter /share/apps/gaussian/g09_D01/g09/l703.exe)
 Compute integral first derivatives, UseDBF=F ICtDFT=           0.
 Integral derivatives from FoFJK, PRISM(SPDF).
 Calling FoFJK, ICntrl=      2527 FMM=F ISym2X=0 I1Cent= 0 IOpClX= 0 NMat=1 NMatS=1 NMatT=0.
 FoFJK:  IHMeth= 1 ICntrl=    2527 DoSepK=F KAlg= 0 I1Cent=   0 FoldK=F
 IRaf=         0 NMat=   1 IRICut=       1 DoRegI=T DoRafI=F ISym2E= 0.
 FoFCou: FMM=F IPFlag=           0 FMFlag=      100000 FMFlg1=         800
         NFxFlg=           0 DoJE=F BraDBF=F KetDBF=F FulRan=T
         wScrn=  0.000000 ICntrl=    2527 IOpCl=  0 I1Cent=           0 NGrid=           0
         NMat0=    1 NMatS0=      1 NMatT0=    0 NMatD0=    1 NMtDS0=    0 NMtDT0=    0
 Symmetry not used in FoFCou.
 Leave Link  703 at Wed Feb 14 14:11:51 2018, MaxMem=  1879048192 cpu:        24.3
 (Enter /share/apps/gaussian/g09_D01/g09/l716.exe)
 Dipole        = 1.72015768D+00 1.26853571D+00 2.37538983D-01
 ***** Axes restored to original set *****
 -------------------------------------------------------------------
 Center     Atomic                   Forces (Hartrees/Bohr)
 Number     Number              X              Y              Z
 -------------------------------------------------------------------
      1        6          -0.029402336   -0.007028287    0.011386120
      2        6           0.005832545   -0.014052659   -0.036253858
      3        6           0.002347597    0.014193637    0.027778206
      4        6          -0.004870271   -0.003120033   -0.002426047
      5        6           0.045910976    0.019158691   -0.001577061
      6        8          -0.010663341    0.006764600    0.023672700
      7        6          -0.002386719    0.003374442    0.008968612
      8        8           0.018634513   -0.002385153   -0.021059071
      9        6           0.003976883   -0.001496444   -0.006552448
     10        1          -0.006066398   -0.004714145   -0.004618066
     11        6          -0.058542029   -0.018398336    0.001802067
     12        1           0.003082969   -0.004425472   -0.011072645
     13        6           0.004875604   -0.000644135   -0.005473496
     14        1           0.004960179    0.004845598    0.005870710
     15        1          -0.010211728   -0.002676639    0.003361895
     16        1           0.002240652   -0.003212826   -0.008666756
     17        1          -0.001046262    0.001652171    0.005589682
     18        7           0.023620659   -0.001776587    0.010914858
     19        1           0.007330823    0.001754649   -0.002615952
     20        6          -0.004196989    0.010567693    0.013423264
     21        6           0.007497852    0.009179678   -0.011393114
     22        1           0.003075050    0.005877289   -0.005723083
     23        1          -0.007858639   -0.002433501   -0.002793256
     24        1           0.006440945   -0.007385997    0.002156901
     25        1          -0.001066600    0.005439835    0.006473472
     26        1           0.004335534   -0.008050115    0.002676228
     27        1          -0.007851470   -0.001007954   -0.003849864
 -------------------------------------------------------------------
 Cartesian Forces:  Max     0.058542029 RMS     0.013129388
 Leave Link  716 at Wed Feb 14 14:11:52 2018, MaxMem=  1879048192 cpu:         0.0
 (Enter /share/apps/gaussian/g09_D01/g09/l103.exe)

 GradGradGradGradGradGradGradGradGradGradGradGradGradGradGradGradGradGrad
 Berny optimization.
 FormGI is forming the generalized inverse of G from B-inverse, IUseBI=4.
 GSVD:  received Info=                   1 from GESDD.
 Internal  Forces:  Max     0.040908213 RMS     0.007759805
 Search for a local minimum.
 Step number   1 out of a maximum of  134
 All quantities printed in internal units (Hartrees-Bohrs-Radians)
 RMS Force = .77598D-02 SwitMx=.10000D-02 MixMth= 1
 Mixed Optimization -- RFO/linear search
 Second derivative matrix not updated -- first step.
 ITU=  0
     Eigenvalues ---    0.00564   0.00638   0.00672   0.00676   0.00778
     Eigenvalues ---    0.01461   0.01588   0.01843   0.01957   0.01995
     Eigenvalues ---    0.02032   0.02037   0.02184   0.02199   0.02243
     Eigenvalues ---    0.02273   0.02294   0.02302   0.02338   0.03062
     Eigenvalues ---    0.07080   0.07080   0.07492   0.07532   0.15987
     Eigenvalues ---    0.16000   0.16000   0.16000   0.16000   0.16000
     Eigenvalues ---    0.16000   0.16000   0.16000   0.16000   0.16000
     Eigenvalues ---    0.16000   0.16000   0.19802   0.21272   0.22000
     Eigenvalues ---    0.22000   0.22005   0.22479   0.24475   0.25000
     Eigenvalues ---    0.25000   0.25000   0.25000   0.30827   0.32474
     Eigenvalues ---    0.34391   0.34421   0.34612   0.34924   0.34940
     Eigenvalues ---    0.34993   0.35004   0.35006   0.35021   0.35534
     Eigenvalues ---    0.35853   0.35879   0.35913   0.36745   0.41467
     Eigenvalues ---    0.42285   0.42844   0.44961   0.45873   0.47937
     Eigenvalues ---    0.48444   0.49538   0.50235   0.60366   0.86635
 RFO step:  Lambda=-1.67474479D-02 EMin= 5.64019952D-03
 Linear search not attempted -- first point.
 Iteration  1 RMS(Cart)=  0.07808531 RMS(Int)=  0.00132316
 Iteration  2 RMS(Cart)=  0.00289061 RMS(Int)=  0.00007728
 Iteration  3 RMS(Cart)=  0.00000287 RMS(Int)=  0.00007727
 Iteration  4 RMS(Cart)=  0.00000000 RMS(Int)=  0.00007727
 ITry= 1 IFail=0 DXMaxC= 2.29D-01 DCOld= 1.00D+10 DXMaxT= 3.00D-01 DXLimC= 3.00D+00 Rises=F
 Variable       Old X    -DE/DX   Delta X   Delta X   Delta X     New X
                                 (Linear)    (Quad)   (Total)
    R1        2.86344  -0.01030   0.00000  -0.03170  -0.03170   2.83174
    R2        2.66288   0.02261   0.00000   0.04936   0.04937   2.71225
    R3        2.64200   0.01581   0.00000   0.03352   0.03354   2.67555
    R4        2.83285  -0.01693   0.00000  -0.04959  -0.04959   2.78326
    R5        2.34524   0.02618   0.00000   0.02965   0.02965   2.37489
    R6        2.65607   0.00711   0.00000   0.01502   0.01501   2.67108
    R7        2.59629  -0.01969   0.00000  -0.03793  -0.03793   2.55836
    R8        2.60145   0.01598   0.00000   0.03137   0.03138   2.63283
    R9        2.04311   0.00895   0.00000   0.02385   0.02385   2.06696
   R10        2.50651   0.04091   0.00000   0.06594   0.06594   2.57245
   R11        2.02933   0.01231   0.00000   0.03203   0.03203   2.06136
   R12        2.59724   0.01742   0.00000   0.03334   0.03332   2.63057
   R13        2.04272   0.00901   0.00000   0.02398   0.02398   2.06669
   R14        1.88706   0.01095   0.00000   0.02206   0.02206   1.90913
   R15        2.63719   0.01300   0.00000   0.02704   0.02703   2.66422
   R16        2.04218   0.00951   0.00000   0.02529   0.02529   2.06748
   R17        2.05686   0.00590   0.00000   0.01610   0.01610   2.07296
   R18        2.67863  -0.02858   0.00000  -0.06420  -0.06420   2.61443
   R19        2.04817   0.00797   0.00000   0.02142   0.02142   2.06959
   R20        2.79072  -0.00971   0.00000  -0.02653  -0.02653   2.76419
   R21        2.79610  -0.00831   0.00000  -0.02291  -0.02291   2.77319
   R22        2.05666   0.00874   0.00000   0.02382   0.02382   2.08047
   R23        2.05641   0.00867   0.00000   0.02362   0.02362   2.08003
   R24        2.06625   0.00997   0.00000   0.02762   0.02762   2.09388
   R25        2.05669   0.00851   0.00000   0.02319   0.02319   2.07988
   R26        2.06675   0.00949   0.00000   0.02632   0.02632   2.09307
   R27        2.05798   0.00877   0.00000   0.02398   0.02398   2.08195
    A1        2.05617   0.01418   0.00000   0.05295   0.05293   2.10910
    A2        2.15724  -0.01068   0.00000  -0.04022  -0.04024   2.11699
    A3        2.06978  -0.00350   0.00000  -0.01272  -0.01269   2.05709
    A4        2.10360  -0.00809   0.00000  -0.03035  -0.03037   2.07323
    A5        2.08220   0.01091   0.00000   0.04091   0.04089   2.12309
    A6        2.09738  -0.00282   0.00000  -0.01060  -0.01061   2.08676
    A7        2.08782   0.00080   0.00000   0.00230   0.00230   2.09011
    A8        2.14002   0.00731   0.00000   0.02776   0.02776   2.16777
    A9        2.05535  -0.00811   0.00000  -0.03006  -0.03006   2.02530
   A10        2.11919   0.00219   0.00000   0.01029   0.01032   2.12951
   A11        2.09096  -0.00157   0.00000  -0.00780  -0.00782   2.08315
   A12        2.07303  -0.00063   0.00000  -0.00249  -0.00250   2.07053
   A13        2.07794  -0.00158   0.00000  -0.00668  -0.00669   2.07125
   A14        2.07522   0.00057   0.00000   0.00210   0.00209   2.07731
   A15        2.13003   0.00101   0.00000   0.00459   0.00459   2.13462
   A16        2.09920   0.00151   0.00000   0.00491   0.00488   2.10408
   A17        2.06663  -0.00200   0.00000  -0.00949  -0.00948   2.05715
   A18        2.11736   0.00049   0.00000   0.00459   0.00460   2.12196
   A19        1.81031   0.00324   0.00000   0.01834   0.01834   1.82864
   A20        2.08771  -0.00140   0.00000  -0.00556  -0.00557   2.08215
   A21        2.09798   0.00052   0.00000   0.00173   0.00173   2.09971
   A22        2.09749   0.00089   0.00000   0.00384   0.00384   2.10133
   A23        2.06789   0.00097   0.00000   0.00448   0.00448   2.07236
   A24        2.23412  -0.00143   0.00000  -0.00601  -0.00601   2.22812
   A25        1.97964   0.00046   0.00000   0.00160   0.00160   1.98124
   A26        2.10267   0.00040   0.00000   0.00079   0.00076   2.10343
   A27        2.09061  -0.00060   0.00000  -0.00268  -0.00266   2.08795
   A28        2.08991   0.00020   0.00000   0.00189   0.00190   2.09181
   A29        2.04465  -0.00043   0.00000   0.00780   0.00729   2.05194
   A30        2.00941   0.00096   0.00000   0.01430   0.01388   2.02329
   A31        1.99025   0.00066   0.00000   0.01189   0.01145   2.00170
   A32        1.91484  -0.00074   0.00000  -0.00483  -0.00485   1.90999
   A33        1.89628   0.00006   0.00000   0.00082   0.00082   1.89710
   A34        1.96643  -0.00135   0.00000  -0.00747  -0.00748   1.95895
   A35        1.89129   0.00024   0.00000   0.00097   0.00097   1.89226
   A36        1.89739   0.00093   0.00000   0.00439   0.00436   1.90175
   A37        1.89618   0.00093   0.00000   0.00650   0.00650   1.90268
   A38        1.90786  -0.00054   0.00000  -0.00369  -0.00370   1.90416
   A39        1.96562  -0.00096   0.00000  -0.00512  -0.00513   1.96050
   A40        1.90399  -0.00004   0.00000   0.00010   0.00010   1.90409
   A41        1.89634   0.00066   0.00000   0.00311   0.00309   1.89943
   A42        1.89571   0.00014   0.00000   0.00020   0.00020   1.89591
   A43        1.89314   0.00079   0.00000   0.00563   0.00563   1.89877
    D1       -3.13826   0.00018   0.00000   0.00777   0.00785  -3.13041
[...]
 Alpha virt. eigenvalues --    1.99983   2.01488   2.03141   2.04901   2.07332
 Alpha virt. eigenvalues --    2.07574   2.13615   2.13701   2.15764   2.16653
 Alpha virt. eigenvalues --    2.18330   2.19994   2.22801   2.23138   2.25348
 Alpha virt. eigenvalues --    2.30805   2.33078   2.35667   2.37741   2.42942
 Alpha virt. eigenvalues --    2.43219   2.45910   2.47348   2.51739   2.52323
 Alpha virt. eigenvalues --    2.53122   2.56811   2.58781   2.62123   2.64613
 Alpha virt. eigenvalues --    2.68346   2.73479   2.75522   2.79398   2.83701
 Alpha virt. eigenvalues --    2.87737   2.95663   2.97087   3.06012   3.17940
 Alpha virt. eigenvalues --    3.33199   3.88413   3.92317   3.94839   4.01003
 Alpha virt. eigenvalues --    4.05146   4.08906   4.14285   4.15277   4.19749
 Alpha virt. eigenvalues --    4.28430   4.33692   4.38109   4.58523   4.69770
          Condensed to atoms (all electrons):
               1          2          3          4          5          6
     1  C    5.177855   0.309181   0.378698   0.461435  -0.089399  -0.068144
     2  C    0.309181   4.643229  -0.038625  -0.049258   0.376919   0.429497
     3  C    0.378698  -0.038625   4.692981  -0.037493   0.007692  -0.004747
     4  C    0.461435  -0.049258  -0.037493   5.060065  -0.006601   0.004651
     5  C   -0.089399   0.376919   0.007692  -0.006601   5.306307  -0.107560
     6  O   -0.068144   0.429497  -0.004747   0.004651  -0.107560   8.246209
     7  C   -0.052443   0.005992   0.485618  -0.038455  -0.000236   0.000540
     8  O   -0.061001  -0.005125   0.335446   0.004559  -0.000201  -0.057480
     9  C   -0.013380   0.005936  -0.041375   0.517490   0.000179  -0.000029
    10  H   -0.039576  -0.013156   0.004132   0.343214   0.004833   0.000008
    11  C    0.010614   0.010535  -0.000193   0.000175   0.494588  -0.001596
    12  H   -0.009173  -0.027210   0.000020   0.003091   0.345741   0.002847
    13  C   -0.033279   0.000269  -0.010166  -0.031167   0.000000  -0.000016
    14  H    0.007160  -0.000107  -0.035271   0.000277   0.000002   0.000014
    15  H   -0.018787  -0.008331  -0.025083   0.000061   0.003165   0.106000
    16  H    0.003705  -0.000128   0.000706  -0.040545   0.000014   0.000000
    17  H    0.001318  -0.009244   0.000005  -0.000032  -0.051454   0.024975
    18  N   -0.000103   0.002050   0.000000   0.000000  -0.038087   0.000551
    19  H    0.000441   0.000003   0.004741   0.005359   0.000000   0.000000
    20  C    0.000007   0.000071   0.000000  -0.000006  -0.008066   0.000001
    21  C    0.000002   0.000005   0.000000   0.000000   0.004656   0.000012
    22  H   -0.000003   0.000193   0.000000  -0.000012   0.007176  -0.000001
    23  H    0.000000  -0.000001   0.000000   0.000000   0.000293   0.000000
    24  H    0.000000  -0.000023   0.000000   0.000000   0.003309  -0.000001
    25  H    0.000000  -0.000009   0.000000   0.000000   0.000244  -0.000017
    26  H    0.000000   0.000001   0.000000   0.000000   0.000068  -0.000001
    27  H    0.000000   0.000001   0.000000   0.000000  -0.000139   0.000000
               7          8          9         10         11         12
     1  C   -0.052443  -0.061001  -0.013380  -0.039576   0.010614  -0.009173
     2  C    0.005992  -0.005125   0.005936  -0.013156   0.010535  -0.027210
     3  C    0.485618   0.335446  -0.041375   0.004132  -0.000193   0.000020
     4  C   -0.038455   0.004559   0.517490   0.343214   0.000175   0.003091
     5  C   -0.000236  -0.000201   0.000179   0.004833   0.494588   0.345741
     6  O    0.000540  -0.057480  -0.000029   0.000008  -0.001596   0.002847
     7  C    5.022964  -0.062917  -0.031244   0.000439   0.000000   0.000006
     8  O   -0.062917   8.272316   0.000097  -0.000052   0.000018   0.000005
     9  C   -0.031244   0.000097   4.928768  -0.045735  -0.000011   0.000423
    10  H    0.000439  -0.000052  -0.045735   0.607346   0.000199   0.007588
    11  C    0.000000   0.000018  -0.000011   0.000199   4.845277  -0.056188
    12  H    0.000006   0.000005   0.000423   0.007588  -0.056188   0.593138
    13  C    0.531240   0.003588   0.515850   0.005184   0.000001  -0.000005
    14  H    0.340391   0.000351   0.005101   0.000017   0.000000   0.000000
    15  H    0.004796   0.184052  -0.000006  -0.000001  -0.000036  -0.000090
    16  H    0.004618   0.000002   0.356641  -0.005916   0.000000  -0.000007
    17  H    0.000000   0.000019   0.000000  -0.000005   0.353196   0.005369
    18  N    0.000000   0.000000   0.000000  -0.000003   0.350741  -0.008759
    19  H   -0.041748  -0.000065  -0.044693  -0.000214   0.000000   0.000000
    20  C    0.000000   0.000000   0.000000  -0.000029  -0.044833   0.006810
    21  C    0.000000   0.000000   0.000000   0.000000  -0.048576  -0.000023
    22  H    0.000000   0.000000   0.000000   0.000030  -0.006208   0.001679
    23  H    0.000000   0.000000   0.000000   0.000000   0.003734  -0.000014
    24  H    0.000000   0.000000   0.000000  -0.000016  -0.002316   0.000881
    25  H    0.000000   0.000000   0.000000   0.000000  -0.000020   0.000008
    26  H    0.000000   0.000000   0.000000   0.000000   0.000140   0.000007
    27  H    0.000000   0.000000   0.000000   0.000000   0.002562   0.000002
              13         14         15         16         17         18
     1  C   -0.033279   0.007160  -0.018787   0.003705   0.001318  -0.000103
     2  C    0.000269  -0.000107  -0.008331  -0.000128  -0.009244   0.002050
     3  C   -0.010166  -0.035271  -0.025083   0.000706   0.000005   0.000000
     4  C   -0.031167   0.000277   0.000061  -0.040545  -0.000032   0.000000
     5  C    0.000000   0.000002   0.003165   0.000014  -0.051454  -0.038087
     6  O   -0.000016   0.000014   0.106000   0.000000   0.024975   0.000551
     7  C    0.531240   0.340391   0.004796   0.004618   0.000000   0.000000
     8  O    0.003588   0.000351   0.184052   0.000002   0.000019   0.000000
     9  C    0.515850   0.005101  -0.000006   0.356641   0.000000   0.000000
    10  H    0.005184   0.000017  -0.000001  -0.005916  -0.000005  -0.000003
    11  C    0.000001   0.000000  -0.000036   0.000000   0.353196   0.350741
    12  H   -0.000005   0.000000  -0.000090  -0.000007   0.005369  -0.008759
    13  C    4.890604  -0.044430  -0.000173  -0.043250   0.000000   0.000000
    14  H   -0.044430   0.588855   0.000041  -0.000155   0.000000   0.000000
    15  H   -0.000173   0.000041   0.324188   0.000000  -0.000164  -0.000001
    16  H   -0.043250  -0.000155   0.000000   0.600177   0.000000   0.000000
    17  H    0.000000   0.000000  -0.000164   0.000000   0.539436  -0.052221
    18  N    0.000000   0.000000  -0.000001   0.000000  -0.052221   6.673867
    19  H    0.354422  -0.006890   0.000004  -0.005703   0.000000   0.000000
    20  C    0.000000   0.000000   0.000000   0.000000   0.005224   0.310042
    21  C    0.000000   0.000000   0.000000   0.000000  -0.006598   0.327226
    22  H    0.000000   0.000000   0.000000   0.000000   0.000017  -0.035940
    23  H    0.000000   0.000000   0.000000   0.000000  -0.000131  -0.034619
    24  H    0.000000   0.000000   0.000000   0.000000  -0.000133  -0.043914
    25  H    0.000000   0.000000   0.000000   0.000000   0.007585  -0.033058
    26  H    0.000000   0.000000   0.000000   0.000000  -0.000002  -0.045813
    27  H    0.000000   0.000000   0.000000   0.000000   0.000180  -0.042376
              19         20         21         22         23         24
     1  C    0.000441   0.000007   0.000002  -0.000003   0.000000   0.000000
     2  C    0.000003   0.000071   0.000005   0.000193  -0.000001  -0.000023
     3  C    0.004741   0.000000   0.000000   0.000000   0.000000   0.000000
     4  C    0.005359  -0.000006   0.000000  -0.000012   0.000000   0.000000
     5  C    0.000000  -0.008066   0.004656   0.007176   0.000293   0.003309
     6  O    0.000000   0.000001   0.000012  -0.000001   0.000000  -0.000001
     7  C   -0.041748   0.000000   0.000000   0.000000   0.000000   0.000000
     8  O   -0.000065   0.000000   0.000000   0.000000   0.000000   0.000000
     9  C   -0.044693   0.000000   0.000000   0.000000   0.000000   0.000000
    10  H   -0.000214  -0.000029   0.000000   0.000030   0.000000  -0.000016
    11  C    0.000000  -0.044833  -0.048576  -0.006208   0.003734  -0.002316
    12  H    0.000000   0.006810  -0.000023   0.001679  -0.000014   0.000881
    13  C    0.354422   0.000000   0.000000   0.000000   0.000000   0.000000
    14  H   -0.006890   0.000000   0.000000   0.000000   0.000000   0.000000
    15  H    0.000004   0.000000   0.000000   0.000000   0.000000   0.000000
    16  H   -0.005703   0.000000   0.000000   0.000000   0.000000   0.000000
    17  H    0.000000   0.005224  -0.006598   0.000017  -0.000131  -0.000133
    18  N    0.000000   0.310042   0.327226  -0.035940  -0.034619  -0.043914
    19  H    0.597349   0.000000   0.000000   0.000000   0.000000   0.000000
    20  C    0.000000   5.048556  -0.056884   0.366354   0.371500   0.368549
    21  C    0.000000  -0.056884   5.039325   0.004207  -0.003029   0.000609
    22  H    0.000000   0.366354   0.004207   0.532614  -0.021716  -0.041203
    23  H    0.000000   0.371500  -0.003029  -0.021716   0.534903  -0.033790
    24  H    0.000000   0.368549   0.000609  -0.041203  -0.033790   0.562333
    25  H    0.000000   0.004916   0.371212  -0.000188   0.000210  -0.000227
    26  H    0.000000  -0.000578   0.366660  -0.000405  -0.001484   0.003717
    27  H    0.000000  -0.003044   0.370296   0.000643   0.005984  -0.000974
              25         26         27
     1  C    0.000000   0.000000   0.000000
     2  C   -0.000009   0.000001   0.000001
     3  C    0.000000   0.000000   0.000000
     4  C    0.000000   0.000000   0.000000
     5  C    0.000244   0.000068  -0.000139
     6  O   -0.000017  -0.000001   0.000000
     7  C    0.000000   0.000000   0.000000
     8  O    0.000000   0.000000   0.000000
     9  C    0.000000   0.000000   0.000000
    10  H    0.000000   0.000000   0.000000
    11  C   -0.000020   0.000140   0.002562
    12  H    0.000008   0.000007   0.000002
    13  C    0.000000   0.000000   0.000000
    14  H    0.000000   0.000000   0.000000
    15  H    0.000000   0.000000   0.000000
    16  H    0.000000   0.000000   0.000000
    17  H    0.007585  -0.000002   0.000180
    18  N   -0.033058  -0.045813  -0.042376
    19  H    0.000000   0.000000   0.000000
    20  C    0.004916  -0.000578  -0.003044
    21  C    0.371212   0.366660   0.370296
    22  H   -0.000188  -0.000405   0.000643
    23  H    0.000210  -0.001484   0.005984
    24  H   -0.000227   0.003717  -0.000974
    25  H    0.508072  -0.029259  -0.022179
    26  H   -0.029259   0.571557  -0.044595
    27  H   -0.022179  -0.044595   0.554751
 Mulliken charges:
               1
     1  C    0.034869
     2  C    0.367333
     3  C    0.282912
     4  C   -0.196807
     5  C   -0.253441
     6  O   -0.575713
     7  C   -0.169563
     8  O   -0.613613
     9  C   -0.154009
    10  H    0.131714
    11  C    0.088196
    12  H    0.133855
    13  C   -0.138673
    14  H    0.144642
    15  H    0.430365
    16  H    0.129841
    17  H    0.182659
    18  N   -0.329583
    19  H    0.136995
    20  C   -0.368588
    21  C   -0.369099
    22  H    0.192764
    23  H    0.178160
    24  H    0.183198
    25  H    0.192710
    26  H    0.179988
    27  H    0.178888
 Sum of Mulliken charges =   0.00000
 Mulliken charges with hydrogens summed into heavy atoms:
               1
     1  C    0.034869
     2  C    0.367333
     3  C    0.282912
     4  C   -0.065093
     5  C   -0.119586
     6  O   -0.575713
     7  C   -0.024921
     8  O   -0.183248
     9  C   -0.024169
    11  C    0.270855
    13  C   -0.001678
    18  N   -0.329583
    20  C    0.185534
    21  C    0.182486
 Electronic spatial extent (au):  <R**2>=           3999.6114
 Charge=              0.0000 electrons
 Dipole moment (field-independent basis, Debye):
    X=              5.8185    Y=              3.2967    Z=              0.2068  Tot=              6.6907
 Quadrupole moment (field-independent basis, Debye-Ang):
   XX=            -57.6727   YY=            -81.5254   ZZ=            -85.4678
   XY=             -2.6927   XZ=              0.5190   YZ=             -0.3463
 Traceless Quadrupole moment (field-independent basis, Debye-Ang):
   XX=             17.2159   YY=             -6.6368   ZZ=            -10.5791
   XY=             -2.6927   XZ=              0.5190   YZ=             -0.3463
 Octapole moment (field-independent basis, Debye-Ang**2):
  XXX=             97.7504  YYY=              7.1664  ZZZ=              0.4029  XYY=             18.8248
  XXY=             12.4985  XXZ=              2.6868  XZZ=              9.5178  YZZ=             -7.4188
  YYZ=             -0.3077  XYZ=             -1.2701
 Hexadecapole moment (field-independent basis, Debye-Ang**3):
 XXXX=          -3647.6153 YYYY=           -861.6624 ZZZZ=            -98.5372 XXXY=            -25.9790
 XXXZ=             -3.1538 YYYX=            -13.4105 YYYZ=             -0.3915 ZZZX=              4.9291
 ZZZY=              0.6483 XXYY=           -828.4061 XXZZ=           -771.1617 YYZZ=           -167.9365
 XXYZ=             -4.1047 YYXZ=             -1.9022 ZZXY=             17.8228
 N-N= 8.313905056902D+02 E-N=-3.132691097847D+03  KE= 6.252596199486D+02
 No NMR shielding tensors so no spin-rotation constants.
 Leave Link  601 at Wed Feb 14 14:24:17 2018, MaxMem=  1879048192 cpu:         0.7
 (Enter /share/apps/gaussian/g09_D01/g09/l602.exe)
 FitSet:  NAtFit=    27 NAtPot=    27 NAtFrz=     0 MDM=    31 TotChg=   0.00000
 Merz-Kollman atomic radii used.

 **********************************************************************

            Electrostatic Properties Using The SCF Density

 **********************************************************************

       Atomic Center    1 is at  -1.351345  0.049662 -0.012907
       Atomic Center    2 is at  -0.008970 -0.579698 -0.041381
       Atomic Center    3 is at  -2.508547 -0.800838  0.006595
       Atomic Center    4 is at  -1.558537  1.450514 -0.005290
       Atomic Center    5 is at   1.194488  0.237127 -0.028147
       Atomic Center    6 is at   0.083832 -1.850594 -0.068586
       Atomic Center    7 is at  -3.800924 -0.227356  0.039122
       Atomic Center    8 is at  -2.411735 -2.138782 -0.004075
       Atomic Center    9 is at  -2.835417  2.006325  0.024447
       Atomic Center   10 is at  -0.695911  2.122847 -0.027526
       Atomic Center   11 is at   2.416245 -0.391801 -0.035051
       Atomic Center   12 is at   1.118770  1.324277  0.009728
       Atomic Center   13 is at  -3.959290  1.155206  0.048175
       Atomic Center   14 is at  -4.658866 -0.905831  0.055175
       Atomic Center   15 is at  -1.399149 -2.313661 -0.034058
       Atomic Center   16 is at  -2.963054  3.092933  0.028558
       Atomic Center   17 is at   2.413754 -1.488165 -0.029018
       Atomic Center   18 is at   3.644472  0.186107 -0.069311
       Atomic Center   19 is at  -4.967728  1.582487  0.072433
       Atomic Center   20 is at   3.781830  1.634686 -0.059377
       Atomic Center   21 is at   4.847663 -0.601843  0.155926
       Atomic Center   22 is at   3.095199  2.081494 -0.797969
       Atomic Center   23 is at   4.813384  1.904257 -0.333705
       Atomic Center   24 is at   3.555244  2.065085  0.936087
       Atomic Center   25 is at   4.610581 -1.670386  0.044284
       Atomic Center   26 is at   5.260897 -0.440266  1.171211
       Atomic Center   27 is at   5.625624 -0.334713 -0.581420
    1123 points will be used for fitting atomic charges
 Fitting point charges to electrostatic potential
 Charges from ESP fit, RMS=   0.00085 RRMS=   0.04382:
 ESP charges:
               1
     1  C   -0.326936
     2  C    0.552973
     3  C    0.454241
     4  C   -0.059101
     5  C   -0.463450
     6  O   -0.523806
     7  C   -0.304272
     8  O   -0.536644
     9  C   -0.208796
    10  H    0.105056
    11  C   -0.035515
    12  H    0.182269
    13  C   -0.068740
    14  H    0.167954
    15  H    0.418249
    16  H    0.132217
    17  H    0.149500
    18  N    0.152529
    19  H    0.124989
    20  C   -0.367231
    21  C   -0.394871
    22  H    0.134570
    23  H    0.146139
    24  H    0.139359
    25  H    0.147927
    26  H    0.146165
    27  H    0.135226
 Sum of ESP charges =   0.00000
 ESP charges with hydrogens summed into heavy atoms:
               1
     1  C   -0.326936
     2  C    0.552973
     3  C    0.454241
     4  C    0.045955
     5  C   -0.281181
     6  O   -0.523806
     7  C   -0.136318
     8  O   -0.118395
     9  C   -0.076579
    11  C    0.113985
    13  C    0.056249
    18  N    0.152529
    20  C    0.052836
    21  C    0.034447
 Charge=   0.00000 Dipole=     5.8235     3.3129     0.2027 Tot=     6.7029
 -----------------------------------------------------------------

              Electrostatic Properties (Atomic Units)

 -----------------------------------------------------------------
    Center     Electric         -------- Electric Field --------
               Potential          X             Y             Z
 -----------------------------------------------------------------
    1 Atom    -14.733964
    2 Atom    -14.666768
    3 Atom    -14.682101
    4 Atom    -14.733165
    5 Atom    -14.742984
    6 Atom    -22.326593
    7 Atom    -14.747150
    8 Atom    -22.298917
    9 Atom    -14.743480
   10 Atom     -1.104247
   11 Atom    -14.685742
   12 Atom     -1.096134
   13 Atom    -14.734546
   14 Atom     -1.112546
   15 Atom     -1.004250
   16 Atom     -1.111570
   17 Atom     -1.084521
   18 Atom    -18.266971
   19 Atom     -1.109054
   20 Atom    -14.677855
   21 Atom    -14.675490
   22 Atom     -1.079752
   23 Atom     -1.074972
   24 Atom     -1.082685
   25 Atom     -1.074474
   26 Atom     -1.083162
   27 Atom     -1.080374
 -----------------------------------------------------------------
 Leave Link  602 at Wed Feb 14 14:24:17 2018, MaxMem=  1879048192 cpu:         0.3
 (Enter /share/apps/gaussian/g09_D01/g09/l9999.exe)
 1\1\GINC-NXN33\FOpt\RPBEPBE\6-31G(d)\C11H13N1O2\BTX156\14-Feb-2018\0\\
 #pbepbe 6-31g* opt Pop=ESP\\high_pop\\0,1\C,1.6286298235,0.8833471336,
 0.1426789056\C,0.3063114678,0.5747662782,0.738605036\C,2.5577108756,1.
 6716927791,0.9030517102\C,2.0294458773,0.4433785298,-1.1422909454\C,-0
 .6568149328,-0.2476328693,0.0232481395\O,0.0209255132,1.0308437144,1.8
 940604047\C,3.8279351908,1.9766175832,0.361082772\O,2.2651691777,2.137
 3453636,2.1266389212\C,3.2818725174,0.7506463326,-1.668833847\H,1.3395
 76693,-0.1521807787,-1.7473040797\C,-1.8612222427,-0.5233321925,0.6246
 481361\H,-0.4102461531,-0.6513928129,-0.9592201548\C,4.1823203038,1.52
 16692174,-0.9054376561\H,4.5101954369,2.5775977039,0.9693541039\H,1.30
 93073289,1.8000693856,2.2980627102\H,3.5620847463,0.3969070871,-2.6655
 14926\H,-2.0209444521,-0.1194631602,1.6313431843\N,-2.9013744829,-1.22
 80401608,0.1097068966\H,5.1699993514,1.7680452052,-1.3102742952\C,-2.8
 047878948,-1.8330109593,-1.2101517961\C,-4.0211132075,-1.6287096681,0.
 9492989403\H,-2.4071401129,-1.0988583823,-1.9309254707\H,-3.8077116231
 ,-2.1415637435,-1.5432675847\H,-2.1417443986,-2.7206519791,-1.21105710
 81\H,-4.0105057648,-1.0389336856,1.8780126074\H,-3.9704728254,-2.70262
 87402,1.2172653877\H,-4.9774092128,-1.4465291812,0.4272190078\\Version
 =ES64L-G09RevD.01\State=1-A\HF=-631.4205645\RMSD=6.278e-09\RMSF=1.286e
 -05\Dipole=-1.8482988,-1.5153164,-1.1030619\Quadrupole=9.41521,-4.3005
 065,-5.1147035,7.4835622,-2.5601846,-0.1868837\PG=C01 [X(C11H13N1O2)]\
 \@


 A COMPLEXITY IS MERELY A DISARRANGEMENT OF SIMPLICITIES.

                                    -- G. O. ABELL IN "EXPLORATION OF THE UNIVERSE"
 Job cpu time:       0 days  0 hours 23 minutes 59.1 seconds.
 File lengths (MBytes):  RWF=     28 Int=      0 D2E=      0 Chk=     12 Scr=      1
 Normal termination of Gaussian 09 at Wed Feb 14 14:24:17 2018.
