 Entering Gaussian System, Link 0=g09
 Input=low_pop.com
 Output=low_pop.log
 Initial command:
 /share/apps/gaussian/g09_D01/g09/l1.exe "/tmp/219773.1.all.q/Gau-25399.inp" -scrdir="/tmp/219773.1.all.q/"
 Default is to use a total of   2 processors:
                                2 via shared-memory
                                1 via Linda
 Entering Link 1 = /share/apps/gaussian/g09_D01/g09/l1.exe PID=     25400.
  
 Copyright (c) 1988,1990,1992,1993,1995,1998,2003,2009,2013,
            Gaussian, Inc.  All Rights Reserved.
  
 This is part of the Gaussian(R) 09 program.  It is based on
 the Gaussian(R) 03 system (copyright 2003, Gaussian, Inc.),
 the Gaussian(R) 98 system (copyright 1998, Gaussian, Inc.),
 the Gaussian(R) 94 system (copyright 1995, Gaussian, Inc.),
 the Gaussian 92(TM) system (copyright 1992, Gaussian, Inc.),
 the Gaussian 90(TM) system (copyright 1990, Gaussian, Inc.),
 the Gaussian 88(TM) system (copyright 1988, Gaussian, Inc.),
 the Gaussian 86(TM) system (copyright 1986, Carnegie Mellon
 University), and the Gaussian 82(TM) system (copyright 1983,
 Carnegie Mellon University). Gaussian is a federally registered
 trademark of Gaussian, Inc.
  
 This software contains proprietary and confidential information,
 including trade secrets, belonging to Gaussian, Inc.
  
 This software is provided under written license and may be
 used, copied, transmitted, or stored only in accord with that
 written license.
  
 The following legend is applicable only to US Government
 contracts under FAR:
  
                    RESTRICTED RIGHTS LEGEND
  
 Use, reproduction and disclosure by the US Government is
 subject to restrictions as set forth in subparagraphs (a)
 and (c) of the Commercial Computer Software - Restricted
 Rights clause in FAR 52.227-19.
  
 Gaussian, Inc.
 340 Quinnipiac St., Bldg. 40, Wallingford CT 06492
  
  
 ---------------------------------------------------------------
 Warning -- This program may not be used in any manner that
 competes with the business of Gaussian, Inc. or will provide
 assistance to any competitor of Gaussian, Inc.  The licensee
 of this program is prohibited from giving any competitor of
 Gaussian, Inc. access to this program.  By using this program,
 the user acknowledges that Gaussian, Inc. is engaged in the
 business of creating and licensing software in the field of
 computational chemistry and represents and warrants to the
 licensee that it is not a competitor of Gaussian, Inc. and that
 it will not use this program in any manner prohibited above.
 ---------------------------------------------------------------
  

 Cite this work as:
 Gaussian 09, Revision D.01,
 M. J. Frisch, G. W. Trucks, H. B. Schlegel, G. E. Scuseria, 
 M. A. Robb, J. R. Cheeseman, G. Scalmani, V. Barone, B. Mennucci, 
 G. A. Petersson, H. Nakatsuji, M. Caricato, X. Li, H. P. Hratchian, 
 A. F. Izmaylov, J. Bloino, G. Zheng, J. L. Sonnenberg, M. Hada, 
 M. Ehara, K. Toyota, R. Fukuda, J. Hasegawa, M. Ishida, T. Nakajima, 
 Y. Honda, O. Kitao, H. Nakai, T. Vreven, J. A. Montgomery, Jr., 
 J. E. Peralta, F. Ogliaro, M. Bearpark, J. J. Heyd, E. Brothers, 
 K. N. Kudin, V. N. Staroverov, T. Keith, R. Kobayashi, J. Normand, 
 K. Raghavachari, A. Rendell, J. C. Burant, S. S. Iyengar, J. Tomasi, 
 M. Cossi, N. Rega, J. M. Millam, M. Klene, J. E. Knox, J. B. Cross, 
 V. Bakken, C. Adamo, J. Jaramillo, R. Gomperts, R. E. Stratmann, 
 O. Yazyev, A. J. Austin, R. Cammi, C. Pomelli, J. W. Ochterski, 
 R. L. Martin, K. Morokuma, V. G. Zakrzewski, G. A. Voth, 
 P. Salvador, J. J. Dannenberg, S. Dapprich, A. D. Daniels, 
 O. Farkas, J. B. Foresman, J. V. Ortiz, J. Cioslowski, 
 and D. J. Fox, Gaussian, Inc., Wallingford CT, 2013.
 
 ******************************************
 Gaussian 09:  ES64L-G09RevD.01 24-Apr-2013
                14-Feb-2018 
 ******************************************
 %chk=low_pop.chk
 %mem=16GB
 %nproc=2
 Will use up to    2 processors via shared memory.
 ----------------------
 #hf/STO-3G opt Pop=ESP
 ----------------------
 1/18=20,19=15,38=1/1,3;
 2/9=110,12=2,17=6,18=5,40=1/2;
 3/6=3,11=9,16=1,25=1,30=1,71=1/1,2,3;
 4//1;
 5/5=2,38=5/2;
 6/7=2,8=2,9=2,10=2,15=8,28=1/1,2;
 7//1,2,3,16;
 1/18=20,19=15/3(2);
 2/9=110/2;
 99//99;
 2/9=110/2;
 3/6=3,11=9,16=1,25=1,30=1,71=1/1,2,3;
 4/5=5,16=3,69=1/1;
 5/5=2,38=5/2;
 7//1,2,3,16;
 1/18=20,19=15/3(-5);
 2/9=110/2;
 6/7=2,8=2,9=2,10=2,15=8,19=2,28=1/1,2;
 99/9=1/99;
 -------
 low_pop
 -------
 Symbolic Z-matrix:
 Charge =  0 Multiplicity = 1
 C                     1.64369   0.89784   0.1405 
 C                     0.2827    0.63093   0.75083 
 C                     2.57005   1.64093   0.89901 
 C                     2.02464   0.44845  -1.1274 
 C                    -0.74772  -0.15671  -0.0009 
 O                     0.02911   1.06793   1.88437 
 C                     3.84369   1.91111   0.36952 
 O                     2.28323   2.12218   2.15349 
 C                     3.27421   0.71737  -1.63863 
 H                     1.32927  -0.12317  -1.72627 
 C                    -1.92455  -0.38501   0.56678 
 H                    -0.50978  -0.51755  -0.98395 
 C                     4.18555   1.45401  -0.88075 
 H                     4.53882   2.48286   0.96816 
 H                     1.34659   1.81649   2.31606 
 H                     3.54803   0.36037  -2.6212 
 H                    -2.10072   0.00042   1.56933 
 N                    -3.05529  -1.02788   0.00343 
 H                     5.16989   1.66697  -1.28129 
 C                    -2.84873  -1.77616  -1.25288 
 C                    -3.93766  -1.71215   0.97427 
 H                    -2.44881  -1.1103   -2.01523 
 H                    -3.81054  -2.15194  -1.59623 
 H                    -2.16594  -2.62163  -1.13238 
 H                    -4.11074  -1.05792   1.82664 
 H                    -3.51483  -2.65364   1.33613 
 H                    -4.89418  -1.9238    0.49859 
 

 GradGradGradGradGradGradGradGradGradGradGradGradGradGradGradGradGradGrad
 Berny optimization.
 Initialization pass.
                           ----------------------------
                           !    Initial Parameters    !
                           ! (Angstroms and Degrees)  !
 --------------------------                            --------------------------
 ! Name  Definition              Value          Derivative Info.                !
 --------------------------------------------------------------------------------
 ! R1    R(1,2)                  1.5153         estimate D2E/DX2                !
 ! R2    R(1,3)                  1.4091         estimate D2E/DX2                !
 ! R3    R(1,4)                  1.3981         estimate D2E/DX2                !
 ! R4    R(2,5)                  1.4991         estimate D2E/DX2                !
 ! R5    R(2,6)                  1.241          estimate D2E/DX2                !
 ! R6    R(3,7)                  1.4055         estimate D2E/DX2                !
 ! R7    R(3,8)                  1.3739         estimate D2E/DX2                !
 ! R8    R(4,9)                  1.3766         estimate D2E/DX2                !
 ! R9    R(4,10)                 1.0812         estimate D2E/DX2                !
 ! R10   R(5,11)                 1.3264         estimate D2E/DX2                !
 ! R11   R(5,12)                 1.0739         estimate D2E/DX2                !
 ! R12   R(7,13)                 1.3744         estimate D2E/DX2                !
 ! R13   R(7,14)                 1.081          estimate D2E/DX2                !
 ! R14   R(8,15)                 0.9986         estimate D2E/DX2                !
 ! R15   R(9,13)                 1.3955         estimate D2E/DX2                !
 ! R16   R(9,16)                 1.0807         estimate D2E/DX2                !
 ! R17   R(11,17)                1.0884         estimate D2E/DX2                !
 ! R18   R(11,18)                1.4175         estimate D2E/DX2                !
 ! R19   R(13,19)                1.0838         estimate D2E/DX2                !
 ! R20   R(18,20)                1.4768         estimate D2E/DX2                !
 ! R21   R(18,21)                1.4796         estimate D2E/DX2                !
 ! R22   R(20,22)                1.0883         estimate D2E/DX2                !
 ! R23   R(20,23)                1.0882         estimate D2E/DX2                !
 ! R24   R(20,24)                1.0934         estimate D2E/DX2                !
 ! R25   R(21,25)                1.0884         estimate D2E/DX2                !
 ! R26   R(21,26)                1.0937         estimate D2E/DX2                !
 ! R27   R(21,27)                1.089          estimate D2E/DX2                !
 ! A1    A(2,1,3)              117.8097         estimate D2E/DX2                !
 ! A2    A(2,1,4)              123.6005         estimate D2E/DX2                !
 ! A3    A(3,1,4)              118.5898         estimate D2E/DX2                !
 ! A4    A(1,2,5)              120.5274         estimate D2E/DX2                !
 ! A5    A(1,2,6)              119.3013         estimate D2E/DX2                !
 ! A6    A(5,2,6)              120.1709         estimate D2E/DX2                !
 ! A7    A(1,3,7)              119.6231         estimate D2E/DX2                !
 ! A8    A(1,3,8)              122.6138         estimate D2E/DX2                !
 ! A9    A(7,3,8)              117.7631         estimate D2E/DX2                !
 ! A10   A(1,4,9)              121.4208         estimate D2E/DX2                !
 ! A11   A(1,4,10)             119.8033         estimate D2E/DX2                !
 ! A12   A(9,4,10)             118.7759         estimate D2E/DX2                !
 ! A13   A(2,5,11)             119.057          estimate D2E/DX2                !
 ! A14   A(2,5,12)             118.9012         estimate D2E/DX2                !
 ! A15   A(11,5,12)            122.0417         estimate D2E/DX2                !
 ! A16   A(3,7,13)             120.2753         estimate D2E/DX2                !
 ! A17   A(3,7,14)             118.4091         estimate D2E/DX2                !
 ! A18   A(13,7,14)            121.3156         estimate D2E/DX2                !
 ! A19   A(3,8,15)             103.7229         estimate D2E/DX2                !
 ! A20   A(4,9,13)             119.6172         estimate D2E/DX2                !
 ! A21   A(4,9,16)             120.2052         estimate D2E/DX2                !
 ! A22   A(13,9,16)            120.1776         estimate D2E/DX2                !
 ! A23   A(5,11,17)            118.4812         estimate D2E/DX2                !
 ! A24   A(5,11,18)            128.0059         estimate D2E/DX2                !
 ! A25   A(17,11,18)           113.4252         estimate D2E/DX2                !
 ! A26   A(7,13,9)             120.4739         estimate D2E/DX2                !
 ! A27   A(7,13,19)            119.7832         estimate D2E/DX2                !
 ! A28   A(9,13,19)            119.743          estimate D2E/DX2                !
 ! A29   A(11,18,20)           117.1496         estimate D2E/DX2                !
 ! A30   A(11,18,21)           115.1309         estimate D2E/DX2                !
 ! A31   A(20,18,21)           114.0329         estimate D2E/DX2                !
 ! A32   A(18,20,22)           109.7121         estimate D2E/DX2                !
 ! A33   A(18,20,23)           108.6487         estimate D2E/DX2                !
 ! A34   A(18,20,24)           112.6682         estimate D2E/DX2                !
 ! A35   A(22,20,23)           108.3628         estimate D2E/DX2                !
 ! A36   A(22,20,24)           108.7123         estimate D2E/DX2                !
 ! A37   A(23,20,24)           108.6432         estimate D2E/DX2                !
 ! A38   A(18,21,25)           109.3121         estimate D2E/DX2                !
 ! A39   A(18,21,26)           112.622          estimate D2E/DX2                !
 ! A40   A(18,21,27)           109.0906         estimate D2E/DX2                !
 ! A41   A(25,21,26)           108.652          estimate D2E/DX2                !
 ! A42   A(25,21,27)           108.6161         estimate D2E/DX2                !
 ! A43   A(26,21,27)           108.4689         estimate D2E/DX2                !
 ! D1    D(3,1,2,5)           -179.8093         estimate D2E/DX2                !
 ! D2    D(3,1,2,6)             -0.0441         estimate D2E/DX2                !
 ! D3    D(4,1,2,5)              0.2136         estimate D2E/DX2                !
 ! D4    D(4,1,2,6)            179.9788         estimate D2E/DX2                !
 ! D5    D(2,1,3,7)           -179.981          estimate D2E/DX2                !
 ! D6    D(2,1,3,8)              0.0385         estimate D2E/DX2                !
 ! D7    D(4,1,3,7)             -0.0028         estimate D2E/DX2                !
 ! D8    D(4,1,3,8)           -179.9833         estimate D2E/DX2                !
 ! D9    D(2,1,4,9)            179.9842         estimate D2E/DX2                !
 ! D10   D(2,1,4,10)            -0.0093         estimate D2E/DX2                !
 ! D11   D(3,1,4,9)              0.0073         estimate D2E/DX2                !
 ! D12   D(3,1,4,10)          -179.9862         estimate D2E/DX2                !
 ! D13   D(1,2,5,11)           179.3003         estimate D2E/DX2                !
 ! D14   D(1,2,5,12)            -0.7853         estimate D2E/DX2                !
 ! D15   D(6,2,5,11)            -0.4629         estimate D2E/DX2                !
 ! D16   D(6,2,5,12)           179.4515         estimate D2E/DX2                !
 ! D17   D(1,3,7,13)            -0.0003         estimate D2E/DX2                !
 ! D18   D(1,3,7,14)           179.9966         estimate D2E/DX2                !
 ! D19   D(8,3,7,13)           179.9812         estimate D2E/DX2                !
 ! D20   D(8,3,7,14)            -0.0219         estimate D2E/DX2                !
 ! D21   D(1,3,8,15)            -0.0847         estimate D2E/DX2                !
 ! D22   D(7,3,8,15)           179.9345         estimate D2E/DX2                !
 ! D23   D(1,4,9,13)            -0.0087         estimate D2E/DX2                !
 ! D24   D(1,4,9,16)          -179.9973         estimate D2E/DX2                !
 ! D25   D(10,4,9,13)          179.9849         estimate D2E/DX2                !
 ! D26   D(10,4,9,16)           -0.0037         estimate D2E/DX2                !
 ! D27   D(2,5,11,17)           -0.6205         estimate D2E/DX2                !
 ! D28   D(2,5,11,18)          175.7301         estimate D2E/DX2                !
 ! D29   D(12,5,11,17)         179.4679         estimate D2E/DX2                !
 ! D30   D(12,5,11,18)          -4.1815         estimate D2E/DX2                !
 ! D31   D(3,7,13,9)            -0.001          estimate D2E/DX2                !
 ! D32   D(3,7,13,19)          180.0            estimate D2E/DX2                !
 ! D33   D(14,7,13,9)         -179.9978         estimate D2E/DX2                !
 ! D34   D(14,7,13,19)           0.0032         estimate D2E/DX2                !
 ! D35   D(4,9,13,7)             0.0054         estimate D2E/DX2                !
 ! D36   D(4,9,13,19)         -179.9956         estimate D2E/DX2                !
 ! D37   D(16,9,13,7)          179.9941         estimate D2E/DX2                !
 ! D38   D(16,9,13,19)          -0.0069         estimate D2E/DX2                !
 ! D39   D(5,11,18,20)          13.4319         estimate D2E/DX2                !
 ! D40   D(5,11,18,21)         151.686          estimate D2E/DX2                !
 ! D41   D(17,11,18,20)       -170.0637         estimate D2E/DX2                !
 ! D42   D(17,11,18,21)        -31.8096         estimate D2E/DX2                !
 ! D43   D(11,18,20,22)        -57.8203         estimate D2E/DX2                !
 ! D44   D(11,18,20,23)       -176.1213         estimate D2E/DX2                !
 ! D45   D(11,18,20,24)         63.4421         estimate D2E/DX2                !
 ! D46   D(21,18,20,22)        163.4808         estimate D2E/DX2                !
 ! D47   D(21,18,20,23)         45.1799         estimate D2E/DX2                !
 ! D48   D(21,18,20,24)        -75.2568         estimate D2E/DX2                !
 ! D49   D(11,18,21,25)         45.6301         estimate D2E/DX2                !
 ! D50   D(11,18,21,26)        -75.2447         estimate D2E/DX2                !
 ! D51   D(11,18,21,27)        164.2652         estimate D2E/DX2                !
 ! D52   D(20,18,21,25)       -174.8136         estimate D2E/DX2                !
 ! D53   D(20,18,21,26)         64.3116         estimate D2E/DX2                !
 ! D54   D(20,18,21,27)        -56.1785         estimate D2E/DX2                !
 --------------------------------------------------------------------------------
 Trust Radius=3.00D-01 FncErr=1.00D-07 GrdErr=1.00D-07
 Number of steps in this run=    134 maximum allowed number of steps=    162.
 GradGradGradGradGradGradGradGradGradGradGradGradGradGradGradGradGradGrad

                          Input orientation:                          
 ---------------------------------------------------------------------
 Center     Atomic      Atomic             Coordinates (Angstroms)
 Number     Number       Type             X           Y           Z
 ---------------------------------------------------------------------
      1          6           0        1.643689    0.897842    0.140498
      2          6           0        0.282702    0.630934    0.750828
      3          6           0        2.570049    1.640928    0.899012
      4          6           0        2.024639    0.448450   -1.127404
      5          6           0       -0.747715   -0.156710   -0.000901
      6          8           0        0.029114    1.067930    1.884373
      7          6           0        3.843690    1.911110    0.369516
      8          8           0        2.283231    2.122182    2.153493
      9          6           0        3.274213    0.717369   -1.638626
     10          1           0        1.329272   -0.123171   -1.726271
     11          6           0       -1.924547   -0.385010    0.566775
     12          1           0       -0.509780   -0.517552   -0.983951
     13          6           0        4.185545    1.454007   -0.880753
     14          1           0        4.538817    2.482859    0.968158
     15          1           0        1.346587    1.816485    2.316060
     16          1           0        3.548025    0.360369   -2.621195
     17          1           0       -2.100720    0.000423    1.569329
     18          7           0       -3.055292   -1.027879    0.003432
     19          1           0        5.169891    1.666974   -1.281288
     20          6           0       -2.848727   -1.776156   -1.252876
     21          6           0       -3.937655   -1.712150    0.974266
     22          1           0       -2.448814   -1.110300   -2.015228
     23          1           0       -3.810538   -2.151943   -1.596231
     24          1           0       -2.165939   -2.621634   -1.132379
     25          1           0       -4.110739   -1.057923    1.826641
     26          1           0       -3.514825   -2.653636    1.336133
     27          1           0       -4.894176   -1.923800    0.498588
 ---------------------------------------------------------------------
                    Distance matrix (angstroms):
                    1          2          3          4          5
     1  C    0.000000
     2  C    1.515265   0.000000
     3  C    1.409136   2.504796   0.000000
     4  C    1.398089   2.568151   2.413677   0.000000
     5  C    2.617420   1.499079   3.879292   3.053060   0.000000
     6  O    2.382621   1.241047   2.784890   3.665607   2.378543
     7  C    2.432934   3.803273   1.405534   2.772921   5.049167
     8  O    2.441346   2.862413   1.373897   3.692226   4.361353
     9  C    2.420013   3.829634   2.790773   1.376627   4.429680
    10  H    2.150849   2.792848   3.397600   1.081170   2.700352
    11  C    3.815721   2.436794   4.941275   4.377324   1.326390
    12  H    2.811611   2.226321   4.205940   2.716067   1.073875
    13  C    2.795229   4.309488   2.410877   2.396142   5.263611
    14  H    3.402803   4.646652   2.142353   3.853737   5.987806
    15  H    2.380177   2.233234   1.880347   3.766792   3.694307
    16  H    3.397399   4.701710   3.871450   2.135386   5.058329
    17  H    4.107008   2.597728   4.995665   4.948907   2.078686
    18  N    5.080119   3.801640   6.290394   5.409624   2.466549
    19  H    3.879064   5.393282   3.393164   3.376550   6.323233
    20  C    5.410504   4.428855   6.757974   5.358574   2.933308
    21  C    6.217606   4.832327   7.321134   6.680880   3.680497
    22  H    5.042655   4.259594   6.422697   4.819721   2.803673
    23  H    6.485831   5.477929   7.830964   6.405555   3.988348
    24  H    5.340430   4.485701   6.687718   5.194842   3.060629
    25  H    6.307261   4.828244   7.264793   6.974124   3.932178
    26  H    6.375955   5.054918   7.460566   6.810111   3.959697
    27  H    7.129767   5.778439   8.281442   7.492758   4.534891
                    6          7          8          9         10
     6  O    0.000000
     7  C    4.190076   0.000000
     8  O    2.502981   2.379529   0.000000
     9  C    4.802612   2.404570   4.163618   0.000000
    10  H    4.018194   3.853949   4.583036   2.120609   0.000000
    11  C    2.768373   6.211573   5.148697   5.753793   3.989230
    12  H    3.321362   5.165556   4.961115   4.033886   2.022050
    13  C    5.007085   1.374402   3.643063   1.395540   3.370562
    14  H    4.814447   1.080958   2.573475   3.392860   4.934827
    15  H    1.575571   3.167572   0.998589   4.534682   4.483637
    16  H    5.760514   3.381799   5.244171   1.080677   2.440812
    17  H    2.403126   6.358167   4.905317   6.300388   4.758266
    18  N    4.176591   7.507838   6.560905   6.767930   4.799455
    19  H    6.066947   2.131564   4.509738   2.150124   4.260632
    20  C    5.119876   7.811308   7.289539   6.622452   4.517979
    21  C    4.928732   8.604828   7.402169   8.046167   6.128481
    22  H    5.108004   7.376417   7.086566   6.019572   3.915591
    23  H    6.101239   8.885931   8.334422   7.643850   5.527248
    24  H    5.247088   7.675747   7.286691   6.403162   4.337225
    25  H    4.654134   8.614599   7.148619   8.348488   6.564348
    26  H    5.168184   8.713151   7.556055   8.142721   6.264730
    27  H    5.925338   9.543244   8.403800   8.846809   6.850078
                   11         12         13         14         15
    11  C    0.000000
    12  H    2.103303   0.000000
    13  C    6.542977   5.093503   0.000000
    14  H    7.082433   6.188823   2.145183   0.000000
    15  H    4.313571   4.447910   4.290768   3.528630   0.000000
    16  H    6.377130   4.462857   2.152119   4.286034   5.598490
    17  H    1.088444   3.052643   6.901662   7.113884   3.967318
    18  N    1.417470   2.777587   7.705275   8.421785   5.728455
    19  H    7.612951   6.092555   1.083845   2.474658   5.251754
    20  C    2.469924   2.669659   7.749414   8.811811   6.576096
    21  C    2.445394   4.124561   8.913586   9.457733   6.494220
    22  H    2.732698   2.274804   7.202598   8.404664   6.459969
    23  H    3.370105   3.733781   8.800689   9.887831   7.592785
    24  H    2.819199   2.681801   7.550862   8.684576   6.627705
    25  H    2.611419   4.599819   9.081195   9.385571   6.187419
    26  H    2.875336   4.356138   9.004611   9.559296   6.676493
    27  H    3.345328   4.837188   9.785371  10.422116   7.499337
                   16         17         18         19         20
    16  H    0.000000
    17  H    7.042611   0.000000
    18  N    7.240145   2.102533   0.000000
    19  H    2.476493   7.985311   8.750221   0.000000
    20  C    6.881531   3.417688   1.476786   8.726637   0.000000
    21  C    8.559093   2.580956   1.479632   9.972632   2.479924
    22  H    6.204204   3.768809   2.109407   8.142271   1.088336
    23  H    7.842877   4.192485   2.095910   9.763781   1.088204
    24  H    6.615006   3.765456   2.149668   8.498749   1.093413
    25  H    8.969474   2.286150   2.106884  10.159448   3.404696
    26  H    8.638780   3.016306   2.151824  10.047032   2.813650
    27  H    9.285539   3.557038   2.104602  10.832685   2.696903
                   21         22         23         24         25
    21  C    0.000000
    22  H    3.393515   0.000000
    23  H    2.610945   1.764900   0.000000
    24  H    2.898981   1.773012   1.772138   0.000000
    25  H    1.088354   4.186251   3.605975   3.870819   0.000000
    26  H    1.093677   3.840558   2.989632   2.813196   1.772572
    27  H    1.089035   3.600118   2.369512   3.254275   1.768401
                   26         27
    26  H    0.000000
    27  H    1.771088   0.000000
 Stoichiometry    C11H13NO2
 Framework group  C1[X(C11H13NO2)]
 Deg. of freedom    75
 Full point group                 C1      NOp   1
 Largest Abelian subgroup         C1      NOp   1
 Largest concise Abelian subgroup C1      NOp   1
                         Standard orientation:                         
 ---------------------------------------------------------------------
 Center     Atomic      Atomic             Coordinates (Angstroms)
 Number     Number       Type             X           Y           Z
 ---------------------------------------------------------------------
      1          6           0       -1.374629    0.056873   -0.017871
      2          6           0       -0.016128   -0.611950   -0.074270
      3          6           0       -2.514207   -0.771288    0.016367
      4          6           0       -1.554270    1.443239    0.001334
      5          6           0        1.236707    0.210531   -0.108438
      6          8           0        0.050703   -1.851125   -0.087562
      7          6           0       -3.793345   -0.191113    0.068599
      8          8           0       -2.433645   -2.142738    0.001268
      9          6           0       -2.810705    2.003453    0.052644
     10          1           0       -0.693566    2.097035   -0.024493
     11          6           0        2.410907   -0.405372   -0.143486
     12          1           0        1.154871    1.281278   -0.105159
     13          6           0       -3.933944    1.175964    0.086261
     14          1           0       -4.653886   -0.844786    0.094139
     15          1           0       -1.452039   -2.321964   -0.037572
     16          1           0       -2.926814    3.077784    0.066633
     17          1           0        2.426604   -1.493676   -0.135945
     18          7           0        3.698206    0.175962   -0.262361
     19          1           0       -4.924129    1.614857    0.126601
     20          6           0        3.800580    1.634638   -0.055764
     21          6           0        4.797033   -0.598741    0.355476
     22          1           0        3.151876    2.151602   -0.760326
     23          1           0        4.827063    1.941819   -0.245924
     24          1           0        3.527629    1.936693    0.959033
     25          1           0        4.697327   -1.647019    0.080363
     26          1           0        4.803782   -0.522556    1.446475
     27          1           0        5.749391   -0.229305   -0.022054
 ---------------------------------------------------------------------
 Rotational constants (GHZ):      1.5885881      0.3158705      0.2654173
 Standard basis: STO-3G (5D, 7F)
 There are    83 symmetry adapted cartesian basis functions of A   symmetry.
 There are    83 symmetry adapted basis functions of A   symmetry.
    83 basis functions,   249 primitive gaussians,    83 cartesian basis functions
    51 alpha electrons       51 beta electrons
       nuclear repulsion energy       831.8929279354 Hartrees.
 NAtoms=   27 NActive=   27 NUniq=   27 SFac= 1.00D+00 NAtFMM=   60 NAOKFM=F Big=F
 Integral buffers will be    131072 words long.
 Raffenetti 1 integral format.
 Two-electron integral symmetry is turned on.
 One-electron integrals computed using PRISM.
 NBasis=    83 RedAO= T EigKep=  1.70D-01  NBF=    83
 NBsUse=    83 1.00D-06 EigRej= -1.00D+00 NBFU=    83
 ExpMin= 1.69D-01 ExpMax= 1.31D+02 ExpMxC= 1.31D+02 IAcc=1 IRadAn=         1 AccDes= 0.00D+00
 Harris functional with IExCor=  205 and IRadAn=       1 diagonalized for initial guess.
 HarFok:  IExCor=  205 AccDes= 0.00D+00 IRadAn=         1 IDoV= 1 UseB2=F ITyADJ=14
 ICtDFT=  3500011 ScaDFX=  1.000000  1.000000  1.000000  1.000000
 FoFCou: FMM=F IPFlag=           0 FMFlag=      100000 FMFlg1=           0
         NFxFlg=           0 DoJE=T BraDBF=F KetDBF=T FulRan=T
         wScrn=  0.000000 ICntrl=     500 IOpCl=  0 I1Cent=   200000004 NGrid=           0
         NMat0=    1 NMatS0=      1 NMatT0=    0 NMatD0=    1 NMtDS0=    0 NMtDT0=    0
 Petite list used in FoFCou.
 Keep R1 ints in memory in canonical form, NReq=6992209.
 Requested convergence on RMS density matrix=1.00D-08 within 128 cycles.
 Requested convergence on MAX density matrix=1.00D-06.
 Requested convergence on             energy=1.00D-06.
 No special actions if energy rises.
 SCF Done:  E(RHF) =  -620.396120427     A.U. after   16 cycles
            NFock= 16  Conv=0.73D-08     -V/T= 2.0089

 **********************************************************************

            Population analysis using the SCF density.

 **********************************************************************

 Orbital symmetries:
       Occupied  (A) (A) (A) (A) (A) (A) (A) (A) (A) (A) (A) (A)
                 (A) (A) (A) (A) (A) (A) (A) (A) (A) (A) (A) (A)
                 (A) (A) (A) (A) (A) (A) (A) (A) (A) (A) (A) (A)
                 (A) (A) (A) (A) (A) (A) (A) (A) (A) (A) (A) (A)
                 (A) (A) (A)
       Virtual   (A) (A) (A) (A) (A) (A) (A) (A) (A) (A) (A) (A)
                 (A) (A) (A) (A) (A) (A) (A) (A) (A) (A) (A) (A)
                 (A) (A) (A) (A) (A) (A) (A) (A)
 The electronic state is 1-A.
 Alpha  occ. eigenvalues --  -20.25847 -20.24807 -15.36921 -11.13336 -11.09643
 Alpha  occ. eigenvalues --  -11.09448 -11.09349 -11.08948 -11.03908 -11.03734
 Alpha  occ. eigenvalues --  -11.02314 -11.01662 -11.01459 -11.00978  -1.33366
 Alpha  occ. eigenvalues --   -1.28434  -1.19541  -1.08914  -1.00506  -0.96875
 Alpha  occ. eigenvalues --   -0.94099  -0.93678  -0.86892  -0.80590  -0.76618
 Alpha  occ. eigenvalues --   -0.73900  -0.69698  -0.65805  -0.62698  -0.61995
 Alpha  occ. eigenvalues --   -0.60923  -0.59479  -0.57431  -0.55056  -0.54557
 Alpha  occ. eigenvalues --   -0.53503  -0.52120  -0.51438  -0.50336  -0.49517
 Alpha  occ. eigenvalues --   -0.47487  -0.46764  -0.45877  -0.45553  -0.41062
 Alpha  occ. eigenvalues --   -0.40093  -0.39273  -0.31118  -0.28391  -0.25580
 Alpha  occ. eigenvalues --   -0.23277
 Alpha virt. eigenvalues --    0.19712   0.28028   0.29062   0.40467   0.52168
 Alpha virt. eigenvalues --    0.52622   0.56411   0.57681   0.60422   0.62240
 Alpha virt. eigenvalues --    0.63677   0.66549   0.66714   0.68356   0.69400
 Alpha virt. eigenvalues --    0.70059   0.70831   0.72455   0.73050   0.74433
 Alpha virt. eigenvalues --    0.75162   0.76143   0.77474   0.85305   0.87638
 Alpha virt. eigenvalues --    0.88607   0.92183   0.94703   0.97144   1.07596
 Alpha virt. eigenvalues --    1.11620   1.15796
          Condensed to atoms (all electrons):
               1          2          3          4          5          6
     1  C    4.875847   0.387567   0.487383   0.497952  -0.029430  -0.025577
     2  C    0.387567   4.713753  -0.027782  -0.021985   0.392943   0.415526
     3  C    0.487383  -0.027782   4.748953  -0.030148   0.000569  -0.000454
     4  C    0.497952  -0.021985  -0.030148   4.758014  -0.002781   0.000255
     5  C   -0.029430   0.392943   0.000569  -0.002781   4.884510  -0.026390
     6  O   -0.025577   0.415526  -0.000454   0.000255  -0.026390   7.897164
     7  C   -0.031419   0.000737   0.485655  -0.011040  -0.000006  -0.000022
     8  O   -0.017030  -0.000953   0.300764   0.000262  -0.000011  -0.011418
     9  C   -0.029866   0.000707  -0.011116   0.521287   0.000008  -0.000001
    10  H   -0.025513  -0.003002   0.001331   0.394300  -0.001339   0.000006
    11  C    0.000624  -0.027814  -0.000006   0.000025   0.582744  -0.003418
    12  H   -0.001389  -0.021469   0.000011  -0.001843   0.395813   0.000505
    13  C   -0.010238   0.000017  -0.028891  -0.032157   0.000000   0.000000
    14  H    0.001269  -0.000017  -0.026285   0.000038   0.000000   0.000000
    15  H   -0.009720  -0.008059  -0.043043   0.000080   0.000285   0.032423
    16  H    0.001386  -0.000013   0.000035  -0.026201   0.000001   0.000000
    17  H    0.000061  -0.005770  -0.000001  -0.000002  -0.029451   0.001764
    18  N   -0.000002   0.000481   0.000000   0.000000  -0.023201   0.000000
    19  H    0.000016   0.000000   0.001441   0.001467   0.000000   0.000000
    20  C    0.000000   0.000006   0.000000   0.000000  -0.004253   0.000000
    21  C    0.000000  -0.000009   0.000000   0.000000   0.000896   0.000000
    22  H    0.000000   0.000011   0.000000   0.000000  -0.000708   0.000000
    23  H    0.000000   0.000000   0.000000   0.000000   0.000052   0.000000
    24  H    0.000000   0.000000   0.000000   0.000000   0.000527   0.000000
    25  H    0.000000   0.000000   0.000000   0.000000   0.000017   0.000000
    26  H    0.000000   0.000000   0.000000   0.000000   0.000080   0.000000
    27  H    0.000000   0.000000   0.000000   0.000000  -0.000024   0.000000
               7          8          9         10         11         12
     1  C   -0.031419  -0.017030  -0.029866  -0.025513   0.000624  -0.001389
     2  C    0.000737  -0.000953   0.000707  -0.003002  -0.027814  -0.021469
     3  C    0.485655   0.300764  -0.011116   0.001331  -0.000006   0.000011
     4  C   -0.011040   0.000262   0.521287   0.394300   0.000025  -0.001843
     5  C   -0.000006  -0.000011   0.000008  -0.001339   0.582744   0.395813
     6  O   -0.000022  -0.011418  -0.000001   0.000006  -0.003418   0.000505
     7  C    4.808523  -0.023973  -0.031519   0.000020   0.000000   0.000000
     8  O   -0.023973   7.824943   0.000009  -0.000004   0.000000   0.000000
     9  C   -0.031519   0.000009   4.792721  -0.026660   0.000000   0.000014
    10  H    0.000020  -0.000004  -0.026660   0.601263   0.000003  -0.001445
    11  C    0.000000   0.000000   0.000000   0.000003   4.707317  -0.026833
    12  H    0.000000   0.000000   0.000014  -0.001445  -0.026833   0.597259
    13  C    0.522140   0.000311   0.497245   0.001541   0.000000   0.000000
    14  H    0.394857  -0.000895   0.001409   0.000002   0.000000   0.000000
    15  H    0.002677   0.251272  -0.000002  -0.000003   0.000006  -0.000008
    16  H    0.001404   0.000000   0.396992  -0.004162   0.000000   0.000002
    17  H    0.000000   0.000000   0.000000  -0.000002   0.390332   0.002003
    18  N    0.000000   0.000000   0.000000   0.000001   0.376211  -0.002191
    19  H   -0.025947  -0.000005  -0.025368  -0.000036   0.000000   0.000000
    20  C    0.000000   0.000000   0.000000   0.000000  -0.032624  -0.000793
    21  C    0.000000   0.000000   0.000000   0.000000  -0.035516   0.000016
    22  H    0.000000   0.000000   0.000000  -0.000001  -0.001730  -0.000990
    23  H    0.000000   0.000000   0.000000   0.000000   0.001611   0.000003
    24  H    0.000000   0.000000   0.000000   0.000000  -0.002092  -0.000201
    25  H    0.000000   0.000000   0.000000   0.000000  -0.003628  -0.000001
    26  H    0.000000   0.000000   0.000000   0.000000  -0.001333   0.000002
    27  H    0.000000   0.000000   0.000000   0.000000   0.001684  -0.000001
              13         14         15         16         17         18
     1  C   -0.010238   0.001269  -0.009720   0.001386   0.000061  -0.000002
     2  C    0.000017  -0.000017  -0.008059  -0.000013  -0.005770   0.000481
     3  C   -0.028891  -0.026285  -0.043043   0.000035  -0.000001   0.000000
     4  C   -0.032157   0.000038   0.000080  -0.026201  -0.000002   0.000000
     5  C    0.000000   0.000000   0.000285   0.000001  -0.029451  -0.023201
     6  O    0.000000   0.000000   0.032423   0.000000   0.001764   0.000000
     7  C    0.522140   0.394857   0.002677   0.001404   0.000000   0.000000
     8  O    0.000311  -0.000895   0.251272   0.000000   0.000000   0.000000
     9  C    0.497245   0.001409  -0.000002   0.396992   0.000000   0.000000
    10  H    0.001541   0.000002  -0.000003  -0.004162  -0.000002   0.000001
    11  C    0.000000   0.000000   0.000006   0.000000   0.390332   0.376211
    12  H    0.000000   0.000000  -0.000008   0.000002   0.002003  -0.002191
    13  C    4.750931  -0.024385  -0.000055  -0.025624   0.000000   0.000000
    14  H   -0.024385   0.586856   0.000040  -0.000032   0.000000   0.000000
    15  H   -0.000055   0.000040   0.518986   0.000000  -0.000005   0.000000
    16  H   -0.025624  -0.000032   0.000000   0.600450   0.000000   0.000000
    17  H    0.000000   0.000000  -0.000005   0.000000   0.577114  -0.023366
    18  N    0.000000   0.000000   0.000000   0.000000  -0.023366   6.390723
    19  H    0.394112  -0.003916   0.000001  -0.003616   0.000000   0.000000
    20  C    0.000000   0.000000   0.000000   0.000000   0.001490   0.332904
    21  C    0.000000   0.000000   0.000000   0.000000  -0.004371   0.333425
    22  H    0.000000   0.000000   0.000000   0.000000   0.000004  -0.020089
    23  H    0.000000   0.000000   0.000000   0.000000  -0.000039  -0.020056
    24  H    0.000000   0.000000   0.000000   0.000000  -0.000019  -0.020004
    25  H    0.000000   0.000000   0.000000   0.000000   0.000087  -0.019275
    26  H    0.000000   0.000000   0.000000   0.000000  -0.000048  -0.020021
    27  H    0.000000   0.000000   0.000000   0.000000   0.000066  -0.021104
              19         20         21         22         23         24
     1  C    0.000016   0.000000   0.000000   0.000000   0.000000   0.000000
     2  C    0.000000   0.000006  -0.000009   0.000011   0.000000   0.000000
     3  C    0.001441   0.000000   0.000000   0.000000   0.000000   0.000000
     4  C    0.001467   0.000000   0.000000   0.000000   0.000000   0.000000
     5  C    0.000000  -0.004253   0.000896  -0.000708   0.000052   0.000527
     6  O    0.000000   0.000000   0.000000   0.000000   0.000000   0.000000
     7  C   -0.025947   0.000000   0.000000   0.000000   0.000000   0.000000
     8  O   -0.000005   0.000000   0.000000   0.000000   0.000000   0.000000
     9  C   -0.025368   0.000000   0.000000   0.000000   0.000000   0.000000
    10  H   -0.000036   0.000000   0.000000  -0.000001   0.000000   0.000000
    11  C    0.000000  -0.032624  -0.035516  -0.001730   0.001611  -0.002092
    12  H    0.000000  -0.000793   0.000016  -0.000990   0.000003  -0.000201
    13  C    0.394112   0.000000   0.000000   0.000000   0.000000   0.000000
    14  H   -0.003916   0.000000   0.000000   0.000000   0.000000   0.000000
    15  H    0.000001   0.000000   0.000000   0.000000   0.000000   0.000000
    16  H   -0.003616   0.000000   0.000000   0.000000   0.000000   0.000000
    17  H    0.000000   0.001490  -0.004371   0.000004  -0.000039  -0.000019
    18  N    0.000000   0.332904   0.333425  -0.020089  -0.020056  -0.020004
    19  H    0.594977   0.000000   0.000000   0.000000   0.000000   0.000000
    20  C    0.000000   4.673597  -0.032922   0.384381   0.384687   0.379484
    21  C    0.000000  -0.032922   4.674919   0.001511  -0.003633  -0.000706
    22  H    0.000000   0.384381   0.001511   0.604237  -0.019697  -0.024001
    23  H    0.000000   0.384687  -0.003633  -0.019697   0.605380  -0.023216
    24  H    0.000000   0.379484  -0.000706  -0.024001  -0.023216   0.627299
    25  H    0.000000   0.001508   0.384246  -0.000042   0.000074  -0.000037
    26  H    0.000000  -0.001492   0.379623  -0.000038  -0.000214   0.000867
    27  H    0.000000  -0.002396   0.384315   0.000070   0.000237  -0.000154
              25         26         27
     1  C    0.000000   0.000000   0.000000
     2  C    0.000000   0.000000   0.000000
     3  C    0.000000   0.000000   0.000000
     4  C    0.000000   0.000000   0.000000
     5  C    0.000017   0.000080  -0.000024
     6  O    0.000000   0.000000   0.000000
     7  C    0.000000   0.000000   0.000000
     8  O    0.000000   0.000000   0.000000
     9  C    0.000000   0.000000   0.000000
    10  H    0.000000   0.000000   0.000000
    11  C   -0.003628  -0.001333   0.001684
    12  H   -0.000001   0.000002  -0.000001
    13  C    0.000000   0.000000   0.000000
    14  H    0.000000   0.000000   0.000000
    15  H    0.000000   0.000000   0.000000
    16  H    0.000000   0.000000   0.000000
    17  H    0.000087  -0.000048   0.000066
    18  N   -0.019275  -0.020021  -0.021104
    19  H    0.000000   0.000000   0.000000
    20  C    0.001508  -0.001492  -0.002396
    21  C    0.384246   0.379623   0.384315
    22  H   -0.000042  -0.000038   0.000070
    23  H    0.000074  -0.000214   0.000237
    24  H   -0.000037   0.000867  -0.000154
    25  H    0.602613  -0.023177  -0.019409
    26  H   -0.023177   0.627947  -0.024324
    27  H   -0.019409  -0.024324   0.606680
 Mulliken charges:
               1
     1  C   -0.071923
     2  C    0.205126
     3  C    0.141582
     4  C   -0.047524
     5  C   -0.140851
     6  O   -0.280364
     7  C   -0.092087
     8  O   -0.323272
     9  C   -0.085860
    10  H    0.063699
    11  C    0.074437
    12  H    0.061537
    13  C   -0.044947
    14  H    0.071058
    15  H    0.255124
    16  H    0.059377
    17  H    0.090152
    18  N   -0.264434
    19  H    0.066873
    20  C   -0.083575
    21  C   -0.081794
    22  H    0.077082
    23  H    0.074811
    24  H    0.062254
    25  H    0.077026
    26  H    0.062129
    27  H    0.074361
 Sum of Mulliken charges =   0.00000
 Mulliken charges with hydrogens summed into heavy atoms:
               1
     1  C   -0.071923
     2  C    0.205126
     3  C    0.141582
     4  C    0.016175
     5  C   -0.079314
     6  O   -0.280364
     7  C   -0.021029
     8  O   -0.068148
     9  C   -0.026483
    11  C    0.164590
    13  C    0.021927
    18  N   -0.264434
    20  C    0.130572
    21  C    0.131722
 Electronic spatial extent (au):  <R**2>=           3996.3766
 Charge=              0.0000 electrons
 Dipole moment (field-independent basis, Debye):
    X=              3.3865    Y=              2.4102    Z=              0.7711  Tot=              4.2275
 Quadrupole moment (field-independent basis, Debye-Ang):
   XX=            -68.3146   YY=            -78.6542   ZZ=            -78.4372
   XY=             -3.9069   XZ=              3.0846   YZ=             -0.1541
 Traceless Quadrupole moment (field-independent basis, Debye-Ang):
   XX=              6.8207   YY=             -3.5189   ZZ=             -3.3019
   XY=             -3.9069   XZ=              3.0846   YZ=             -0.1541
 Octapole moment (field-independent basis, Debye-Ang**2):
  XXX=             47.8810  YYY=             -2.3306  ZZZ=              0.4368  XYY=             16.4916
  XXY=             11.7629  XXZ=             12.6578  XZZ=              0.5248  YZZ=             -9.0237
  YYZ=             -0.8906  XYZ=             -0.8202
 Hexadecapole moment (field-independent basis, Debye-Ang**3):
 XXXX=          -3778.7539 YYYY=           -804.9484 ZZZZ=            -82.7751 XXXY=            -15.5372
 XXXZ=             37.7742 YYYX=             -7.3265 YYYZ=              0.0866 ZZZX=              5.7810
 ZZZY=              1.0878 XXYY=           -814.7676 XXZZ=           -729.9383 YYZZ=           -148.8210
 XXYZ=             -0.8875 YYXZ=             -3.4339 ZZXY=             14.4864
 N-N= 8.318929279354D+02 E-N=-3.116189233311D+03  KE= 6.149071048851D+02
 Merz-Kollman atomic radii used.

 **********************************************************************

            Electrostatic Properties Using The SCF Density

 **********************************************************************

       Atomic Center    1 is at  -1.374629  0.056873 -0.017871
       Atomic Center    2 is at  -0.016128 -0.611950 -0.074270
       Atomic Center    3 is at  -2.514207 -0.771288  0.016367
       Atomic Center    4 is at  -1.554270  1.443239  0.001334
       Atomic Center    5 is at   1.236707  0.210531 -0.108438
       Atomic Center    6 is at   0.050703 -1.851125 -0.087562
       Atomic Center    7 is at  -3.793345 -0.191113  0.068599
       Atomic Center    8 is at  -2.433645 -2.142738  0.001268
       Atomic Center    9 is at  -2.810705  2.003453  0.052644
       Atomic Center   10 is at  -0.693566  2.097035 -0.024493
       Atomic Center   11 is at   2.410907 -0.405372 -0.143486
       Atomic Center   12 is at   1.154871  1.281278 -0.105159
       Atomic Center   13 is at  -3.933944  1.175964  0.086261
       Atomic Center   14 is at  -4.653886 -0.844786  0.094139
       Atomic Center   15 is at  -1.452039 -2.321964 -0.037572
       Atomic Center   16 is at  -2.926814  3.077784  0.066633
       Atomic Center   17 is at   2.426604 -1.493676 -0.135945
       Atomic Center   18 is at   3.698206  0.175962 -0.262361
       Atomic Center   19 is at  -4.924129  1.614857  0.126601
       Atomic Center   20 is at   3.800580  1.634638 -0.055764
       Atomic Center   21 is at   4.797033 -0.598741  0.355476
       Atomic Center   22 is at   3.151876  2.151602 -0.760326
       Atomic Center   23 is at   4.827063  1.941819 -0.245924
       Atomic Center   24 is at   3.527629  1.936693  0.959033
       Atomic Center   25 is at   4.697327 -1.647019  0.080363
       Atomic Center   26 is at   4.803782 -0.522556  1.446475
       Atomic Center   27 is at   5.749391 -0.229305 -0.022054
    1135 points will be used for fitting atomic charges
 Fitting point charges to electrostatic potential
 Charges from ESP fit, RMS=   0.00143 RRMS=   0.11609:
 ESP charges:
               1
     1  C   -0.404039
     2  C    0.663468
     3  C    0.545062
     4  C    0.026051
     5  C   -0.473824
     6  O   -0.450473
     7  C   -0.301440
     8  O   -0.573535
     9  C   -0.154000
    10  H    0.044737
    11  C    0.248240
    12  H    0.165678
    13  C    0.024179
    14  H    0.115532
    15  H    0.381612
    16  H    0.071703
    17  H    0.060068
    18  N   -0.215565
    19  H    0.063878
    20  C   -0.237746
    21  C   -0.257706
    22  H    0.087827
    23  H    0.117421
    24  H    0.115914
    25  H    0.096430
    26  H    0.129902
    27  H    0.110624
 Sum of ESP charges =   0.00000
 ESP charges with hydrogens summed into heavy atoms:
               1
     1  C   -0.404039
     2  C    0.663468
     3  C    0.545062
     4  C    0.070788
     5  C   -0.308146
     6  O   -0.450473
     7  C   -0.185908
     8  O   -0.191923
     9  C   -0.082297
    11  C    0.308308
    13  C    0.088058
    18  N   -0.215565
    20  C    0.083417
    21  C    0.079250
 Charge=   0.00000 Dipole=     3.4528     2.4103     0.7893 Tot=     4.2842
 -----------------------------------------------------------------

              Electrostatic Properties (Atomic Units)

 -----------------------------------------------------------------
    Center     Electric         -------- Electric Field --------
               Potential          X             Y             Z
 -----------------------------------------------------------------
    1 Atom    -14.559652
    2 Atom    -14.452195
    3 Atom    -14.494738
    4 Atom    -14.544997
    5 Atom    -14.573457
    6 Atom    -22.048125
    7 Atom    -14.568555
    8 Atom    -22.049783
    9 Atom    -14.566117
   10 Atom     -1.135914
   11 Atom    -14.490871
   12 Atom     -1.137042
   13 Atom    -14.546726
   14 Atom     -1.152065
   15 Atom     -1.042993
   16 Atom     -1.150368
   17 Atom     -1.111277
   18 Atom    -18.060817
   19 Atom     -1.141289
   20 Atom    -14.480400
   21 Atom    -14.478702
   22 Atom     -1.129663
   23 Atom     -1.127746
   24 Atom     -1.136506
   25 Atom     -1.125763
   26 Atom     -1.135806
   27 Atom     -1.129468
 -----------------------------------------------------------------
 Calling FoFJK, ICntrl=      2127 FMM=F ISym2X=0 I1Cent= 0 IOpClX= 0 NMat=1 NMatS=1 NMatT=0.
 ***** Axes restored to original set *****
 -------------------------------------------------------------------
 Center     Atomic                   Forces (Hartrees/Bohr)
 Number     Number              X              Y              Z
 -------------------------------------------------------------------
      1        6           0.000000095   -0.000003729   -0.000007398
      2        6          -0.000002320   -0.000012329    0.000003056
      3        6          -0.000000464    0.000023206    0.000012245
      4        6           0.000002728    0.000005262   -0.000000668
      5        6          -0.000007867    0.000008787    0.000008703
      6        8           0.000001042    0.000002222   -0.000002943
      7        6           0.000001897   -0.000007587   -0.000004484
      8        8           0.000006348   -0.000006790   -0.000008443
      9        6          -0.000003409   -0.000000147    0.000002519
     10        1          -0.000001558   -0.000002683   -0.000000149
     11        6          -0.000007404   -0.000009487   -0.000017914
     12        1           0.000000237   -0.000000674   -0.000001612
     13        6          -0.000004017   -0.000005809    0.000007345
     14        1           0.000002672    0.000001108    0.000000383
     15        1          -0.000007059   -0.000000549    0.000001257
     16        1           0.000001219   -0.000000232   -0.000002147
     17        1           0.000004828   -0.000001992    0.000005730
     18        7           0.000017120    0.000011236    0.000010009
     19        1           0.000001420    0.000003325   -0.000001946
     20        6          -0.000002149   -0.000002054   -0.000002604
     21        6          -0.000003982    0.000000736   -0.000001295
     22        1           0.000000572    0.000001159    0.000000128
     23        1          -0.000001430   -0.000001231   -0.000001331
     24        1           0.000001076   -0.000001905    0.000000330
     25        1          -0.000000892    0.000002324    0.000000097
     26        1           0.000001735   -0.000000460    0.000002169
     27        1          -0.000000439   -0.000001707   -0.000001038
 -------------------------------------------------------------------
 Cartesian Forces:  Max     0.000023206 RMS     0.000005832

 GradGradGradGradGradGradGradGradGradGradGradGradGradGradGradGradGradGrad
 Berny optimization.
 FormGI is forming the generalized inverse of G from B-inverse, IUseBI=4.
 GSVD:  received Info=                   1 from GESDD.
 Internal  Forces:  Max     0.000015505 RMS     0.000002922
 Search for a local minimum.
 Step number   1 out of a maximum of  134
 All quantities printed in internal units (Hartrees-Bohrs-Radians)
 Mixed Optimization -- En-DIIS/RFO-DIIS
 Second derivative matrix not updated -- first step.
 ITU=  0
     Eigenvalues ---    0.00564   0.00638   0.00672   0.00676   0.00778
     Eigenvalues ---    0.01461   0.01588   0.01843   0.01957   0.01995
     Eigenvalues ---    0.02032   0.02037   0.02184   0.02199   0.02243
     Eigenvalues ---    0.02273   0.02294   0.02302   0.02338   0.03062
     Eigenvalues ---    0.07080   0.07080   0.07492   0.07532   0.15987
     Eigenvalues ---    0.16000   0.16000   0.16000   0.16000   0.16000
     Eigenvalues ---    0.16000   0.16000   0.16000   0.16000   0.16000
     Eigenvalues ---    0.16000   0.16000   0.19802   0.21272   0.22000
     Eigenvalues ---    0.22000   0.22005   0.22479   0.24475   0.25000
     Eigenvalues ---    0.25000   0.25000   0.25000   0.30827   0.32474
     Eigenvalues ---    0.34391   0.34421   0.34612   0.34924   0.34940
     Eigenvalues ---    0.34993   0.35004   0.35006   0.35021   0.35534
     Eigenvalues ---    0.35853   0.35879   0.35913   0.36745   0.41467
     Eigenvalues ---    0.42285   0.42844   0.44961   0.45873   0.47937
     Eigenvalues ---    0.48444   0.49538   0.50235   0.60366   0.86635
 RFO step:  Lambda=-1.64827137D-08 EMin= 5.64019952D-03
 Linear search not attempted -- first point.
 Iteration  1 RMS(Cart)=  0.00015378 RMS(Int)=  0.00000001
 Iteration  2 RMS(Cart)=  0.00000003 RMS(Int)=  0.00000000
 Variable       Old X    -DE/DX   Delta X   Delta X   Delta X     New X
                                 (Linear)    (Quad)   (Total)
    R1        2.86344   0.00000   0.00000   0.00000   0.00000   2.86344
    R2        2.66288   0.00001   0.00000   0.00002   0.00002   2.66290
    R3        2.64200   0.00000   0.00000   0.00000   0.00000   2.64200
    R4        2.83285   0.00000   0.00000  -0.00001  -0.00001   2.83284
    R5        2.34524   0.00000   0.00000   0.00000   0.00000   2.34524
    R6        2.65607   0.00000   0.00000   0.00000   0.00000   2.65608
    R7        2.59629  -0.00001   0.00000  -0.00002  -0.00002   2.59627
    R8        2.60145   0.00000   0.00000  -0.00001  -0.00001   2.60144
    R9        2.04311   0.00000   0.00000   0.00001   0.00001   2.04312
   R10        2.50651  -0.00001   0.00000  -0.00002  -0.00002   2.50650
   R11        2.02933   0.00000   0.00000   0.00000   0.00000   2.02933
   R12        2.59724   0.00000   0.00000  -0.00001  -0.00001   2.59724
   R13        2.04272   0.00000   0.00000   0.00001   0.00001   2.04272
   R14        1.88706   0.00001   0.00000   0.00001   0.00001   1.88707
   R15        2.63719   0.00000   0.00000   0.00000   0.00000   2.63719
   R16        2.04218   0.00000   0.00000   0.00001   0.00001   2.04219
   R17        2.05686   0.00000   0.00000   0.00001   0.00001   2.05687
   R18        2.67863  -0.00002   0.00000  -0.00004  -0.00004   2.67859
   R19        2.04817   0.00000   0.00000   0.00001   0.00001   2.04818
   R20        2.79072   0.00000   0.00000   0.00001   0.00001   2.79073
   R21        2.79610   0.00000   0.00000   0.00000   0.00000   2.79610
   R22        2.05666   0.00000   0.00000   0.00000   0.00000   2.05666
   R23        2.05641   0.00000   0.00000   0.00001   0.00001   2.05641
   R24        2.06625   0.00000   0.00000   0.00001   0.00001   2.06626
   R25        2.05669   0.00000   0.00000   0.00000   0.00000   2.05670
   R26        2.06675   0.00000   0.00000   0.00001   0.00001   2.06675
   R27        2.05798   0.00000   0.00000   0.00000   0.00000   2.05798
    A1        2.05617   0.00000   0.00000  -0.00001  -0.00001   2.05616
    A2        2.15724   0.00000   0.00000   0.00000   0.00000   2.15723
    A3        2.06978   0.00000   0.00000   0.00001   0.00001   2.06980
    A4        2.10360   0.00000   0.00000   0.00001   0.00001   2.10361
    A5        2.08220   0.00000   0.00000  -0.00001  -0.00001   2.08219
    A6        2.09738   0.00000   0.00000   0.00000   0.00000   2.09738
    A7        2.08782   0.00000   0.00000  -0.00002  -0.00002   2.08780
    A8        2.14002   0.00000   0.00000  -0.00001  -0.00001   2.14001
    A9        2.05535   0.00001   0.00000   0.00003   0.00003   2.05538
   A10        2.11919   0.00000   0.00000   0.00000   0.00000   2.11919
   A11        2.09096   0.00000   0.00000   0.00000   0.00000   2.09096
   A12        2.07303   0.00000   0.00000   0.00001   0.00001   2.07304
   A13        2.07794   0.00000   0.00000   0.00000   0.00000   2.07793
   A14        2.07522   0.00000   0.00000   0.00000   0.00000   2.07522
   A15        2.13003   0.00000   0.00000   0.00000   0.00000   2.13003
   A16        2.09920   0.00000   0.00000   0.00000   0.00000   2.09920
   A17        2.06663   0.00000   0.00000   0.00001   0.00001   2.06664
   A18        2.11736   0.00000   0.00000  -0.00001  -0.00001   2.11735
   A19        1.81031   0.00000   0.00000   0.00001   0.00001   1.81032
   A20        2.08771   0.00000   0.00000   0.00000   0.00000   2.08771
   A21        2.09798   0.00000   0.00000   0.00001   0.00001   2.09798
   A22        2.09749   0.00000   0.00000   0.00000   0.00000   2.09749
   A23        2.06789  -0.00001   0.00000  -0.00003  -0.00003   2.06785
   A24        2.23412   0.00000   0.00000   0.00002   0.00002   2.23414
   A25        1.97964   0.00000   0.00000   0.00002   0.00002   1.97966
   A26        2.10267   0.00000   0.00000   0.00001   0.00001   2.10268
   A27        2.09061   0.00000   0.00000  -0.00001  -0.00001   2.09060
   A28        2.08991   0.00000   0.00000   0.00000   0.00000   2.08990
   A29        2.04465   0.00000   0.00000   0.00001   0.00001   2.04465
   A30        2.00941   0.00000   0.00000   0.00001   0.00001   2.00942
   A31        1.99025   0.00000   0.00000   0.00000   0.00000   1.99026
   A32        1.91484   0.00000   0.00000  -0.00001  -0.00001   1.91483
   A33        1.89628   0.00000   0.00000   0.00001   0.00001   1.89629
   A34        1.96643   0.00000   0.00000   0.00000   0.00000   1.96643
   A35        1.89129   0.00000   0.00000   0.00000   0.00000   1.89129
   A36        1.89739   0.00000   0.00000   0.00000   0.00000   1.89739
   A37        1.89618   0.00000   0.00000   0.00000   0.00000   1.89618
   A38        1.90786   0.00000   0.00000  -0.00001  -0.00001   1.90784
   A39        1.96562   0.00000   0.00000   0.00000   0.00000   1.96563
   A40        1.90399   0.00000   0.00000   0.00000   0.00000   1.90399
   A41        1.89634   0.00000   0.00000   0.00000   0.00000   1.89634
   A42        1.89571   0.00000   0.00000   0.00000   0.00000   1.89571
   A43        1.89314   0.00000   0.00000   0.00000   0.00000   1.89314
    D1       -3.13826   0.00000   0.00000  -0.00032  -0.00032  -3.13858
    D2       -0.00077   0.00000   0.00000   0.00008   0.00008  -0.00069
    D3        0.00373   0.00000   0.00000  -0.00038  -0.00038   0.00334
    D4        3.14122   0.00000   0.00000   0.00001   0.00001   3.14124
    D5       -3.14126   0.00000   0.00000  -0.00021  -0.00021  -3.14147
    D6        0.00067   0.00000   0.00000  -0.00001  -0.00001   0.00066
    D7       -0.00005   0.00000   0.00000  -0.00015  -0.00015  -0.00019
    D8       -3.14130   0.00000   0.00000   0.00005   0.00005  -3.14125
    D9        3.14132   0.00000   0.00000   0.00014   0.00014   3.14146
   D10       -0.00016   0.00000   0.00000   0.00006   0.00006  -0.00010
   D11        0.00013   0.00000   0.00000   0.00008   0.00008   0.00021
   D12       -3.14135   0.00000   0.00000  -0.00001  -0.00001  -3.14136
   D13        3.12938   0.00000   0.00000   0.00007   0.00007   3.12945
   D14       -0.01371   0.00000   0.00000   0.00009   0.00009  -0.01361
   D15       -0.00808   0.00000   0.00000  -0.00033  -0.00033  -0.00841
   D16        3.13202   0.00000   0.00000  -0.00031  -0.00031   3.13171
   D17       -0.00001   0.00000   0.00000   0.00011   0.00011   0.00011
   D18        3.14153   0.00000   0.00000   0.00008   0.00008  -3.14157
   D19        3.14126   0.00000   0.00000  -0.00007  -0.00007   3.14119
   D20       -0.00038   0.00000   0.00000  -0.00011  -0.00011  -0.00049
   D21       -0.00148   0.00000   0.00000  -0.00016  -0.00016  -0.00164
   D22        3.14045   0.00000   0.00000   0.00003   0.00003   3.14048
   D23       -0.00015   0.00000   0.00000   0.00002   0.00002  -0.00013
   D24       -3.14155   0.00000   0.00000  -0.00001  -0.00001  -3.14156
   D25        3.14133   0.00000   0.00000   0.00011   0.00011   3.14143
   D26       -0.00007   0.00000   0.00000   0.00007   0.00007   0.00000
   D27       -0.01083   0.00000   0.00000  -0.00003  -0.00003  -0.01086
   D28        3.06707   0.00000   0.00000   0.00002   0.00002   3.06709
   D29        3.13231   0.00000   0.00000  -0.00005  -0.00005   3.13225
   D30       -0.07298   0.00000   0.00000   0.00000   0.00000  -0.07298
   D31       -0.00002   0.00000   0.00000  -0.00001  -0.00001  -0.00003
   D32        3.14159   0.00000   0.00000  -0.00009  -0.00009   3.14150
   D33       -3.14155   0.00000   0.00000   0.00002   0.00002  -3.14153
   D34        0.00006   0.00000   0.00000  -0.00006  -0.00006   0.00000
   D35        0.00009   0.00000   0.00000  -0.00006  -0.00006   0.00004
   D36       -3.14152   0.00000   0.00000   0.00003   0.00003  -3.14149
   D37        3.14149   0.00000   0.00000  -0.00002  -0.00002   3.14147
   D38       -0.00012   0.00000   0.00000   0.00006   0.00006  -0.00006
   D39        0.23443   0.00000   0.00000   0.00021   0.00021   0.23464
   D40        2.64742   0.00000   0.00000   0.00024   0.00024   2.64767
   D41       -2.96817   0.00000   0.00000   0.00026   0.00026  -2.96792
   D42       -0.55518   0.00000   0.00000   0.00029   0.00029  -0.55489
   D43       -1.00915   0.00000   0.00000   0.00005   0.00005  -1.00911
   D44       -3.07390   0.00000   0.00000   0.00004   0.00004  -3.07385
   D45        1.10727   0.00000   0.00000   0.00004   0.00004   1.10731
   D46        2.85328   0.00000   0.00000   0.00001   0.00001   2.85329
   D47        0.78854   0.00000   0.00000   0.00001   0.00001   0.78855
   D48       -1.31348   0.00000   0.00000   0.00000   0.00000  -1.31347
   D49        0.79640   0.00000   0.00000   0.00025   0.00025   0.79665
   D50       -1.31327   0.00000   0.00000   0.00026   0.00026  -1.31301
   D51        2.86697   0.00000   0.00000   0.00025   0.00025   2.86722
   D52       -3.05107   0.00000   0.00000   0.00029   0.00029  -3.05079
   D53        1.12245   0.00000   0.00000   0.00030   0.00030   1.12274
   D54       -0.98050   0.00000   0.00000   0.00029   0.00029  -0.98021
         Item               Value     Threshold  Converged?
 Maximum Force            0.000016     0.000450     YES
 RMS     Force            0.000003     0.000300     YES
 Maximum Displacement     0.000726     0.001800     YES
 RMS     Displacement     0.000154     0.001200     YES
 Predicted change in Energy=-8.241364D-09
 Optimization completed.
    -- Stationary point found.
                           ----------------------------
                           !   Optimized Parameters   !
                           ! (Angstroms and Degrees)  !
 --------------------------                            --------------------------
 ! Name  Definition              Value          Derivative Info.                !
 --------------------------------------------------------------------------------
 ! R1    R(1,2)                  1.5153         -DE/DX =    0.0                 !
 ! R2    R(1,3)                  1.4091         -DE/DX =    0.0                 !
 ! R3    R(1,4)                  1.3981         -DE/DX =    0.0                 !
 ! R4    R(2,5)                  1.4991         -DE/DX =    0.0                 !
 ! R5    R(2,6)                  1.241          -DE/DX =    0.0                 !
 ! R6    R(3,7)                  1.4055         -DE/DX =    0.0                 !
 ! R7    R(3,8)                  1.3739         -DE/DX =    0.0                 !
 ! R8    R(4,9)                  1.3766         -DE/DX =    0.0                 !
 ! R9    R(4,10)                 1.0812         -DE/DX =    0.0                 !
 ! R10   R(5,11)                 1.3264         -DE/DX =    0.0                 !
 ! R11   R(5,12)                 1.0739         -DE/DX =    0.0                 !
 ! R12   R(7,13)                 1.3744         -DE/DX =    0.0                 !
 ! R13   R(7,14)                 1.081          -DE/DX =    0.0                 !
 ! R14   R(8,15)                 0.9986         -DE/DX =    0.0                 !
 ! R15   R(9,13)                 1.3955         -DE/DX =    0.0                 !
 ! R16   R(9,16)                 1.0807         -DE/DX =    0.0                 !
 ! R17   R(11,17)                1.0884         -DE/DX =    0.0                 !
 ! R18   R(11,18)                1.4175         -DE/DX =    0.0                 !
 ! R19   R(13,19)                1.0838         -DE/DX =    0.0                 !
 ! R20   R(18,20)                1.4768         -DE/DX =    0.0                 !
 ! R21   R(18,21)                1.4796         -DE/DX =    0.0                 !
 ! R22   R(20,22)                1.0883         -DE/DX =    0.0                 !
 ! R23   R(20,23)                1.0882         -DE/DX =    0.0                 !
 ! R24   R(20,24)                1.0934         -DE/DX =    0.0                 !
 ! R25   R(21,25)                1.0884         -DE/DX =    0.0                 !
 ! R26   R(21,26)                1.0937         -DE/DX =    0.0                 !
 ! R27   R(21,27)                1.089          -DE/DX =    0.0                 !
 ! A1    A(2,1,3)              117.8097         -DE/DX =    0.0                 !
 ! A2    A(2,1,4)              123.6005         -DE/DX =    0.0                 !
 ! A3    A(3,1,4)              118.5898         -DE/DX =    0.0                 !
 ! A4    A(1,2,5)              120.5274         -DE/DX =    0.0                 !
 ! A5    A(1,2,6)              119.3013         -DE/DX =    0.0                 !
 ! A6    A(5,2,6)              120.1709         -DE/DX =    0.0                 !
 ! A7    A(1,3,7)              119.6231         -DE/DX =    0.0                 !
 ! A8    A(1,3,8)              122.6138         -DE/DX =    0.0                 !
 ! A9    A(7,3,8)              117.7631         -DE/DX =    0.0                 !
 ! A10   A(1,4,9)              121.4208         -DE/DX =    0.0                 !
 ! A11   A(1,4,10)             119.8033         -DE/DX =    0.0                 !
 ! A12   A(9,4,10)             118.7759         -DE/DX =    0.0                 !
 ! A13   A(2,5,11)             119.057          -DE/DX =    0.0                 !
 ! A14   A(2,5,12)             118.9012         -DE/DX =    0.0                 !
 ! A15   A(11,5,12)            122.0417         -DE/DX =    0.0                 !
 ! A16   A(3,7,13)             120.2753         -DE/DX =    0.0                 !
 ! A17   A(3,7,14)             118.4091         -DE/DX =    0.0                 !
 ! A18   A(13,7,14)            121.3156         -DE/DX =    0.0                 !
 ! A19   A(3,8,15)             103.7229         -DE/DX =    0.0                 !
 ! A20   A(4,9,13)             119.6172         -DE/DX =    0.0                 !
 ! A21   A(4,9,16)             120.2052         -DE/DX =    0.0                 !
 ! A22   A(13,9,16)            120.1776         -DE/DX =    0.0                 !
 ! A23   A(5,11,17)            118.4812         -DE/DX =    0.0                 !
 ! A24   A(5,11,18)            128.0059         -DE/DX =    0.0                 !
 ! A25   A(17,11,18)           113.4252         -DE/DX =    0.0                 !
 ! A26   A(7,13,9)             120.4739         -DE/DX =    0.0                 !
 ! A27   A(7,13,19)            119.7832         -DE/DX =    0.0                 !
 ! A28   A(9,13,19)            119.743          -DE/DX =    0.0                 !
 ! A29   A(11,18,20)           117.1496         -DE/DX =    0.0                 !
 ! A30   A(11,18,21)           115.1309         -DE/DX =    0.0                 !
 ! A31   A(20,18,21)           114.0329         -DE/DX =    0.0                 !
 ! A32   A(18,20,22)           109.7121         -DE/DX =    0.0                 !
 ! A33   A(18,20,23)           108.6487         -DE/DX =    0.0                 !
 ! A34   A(18,20,24)           112.6682         -DE/DX =    0.0                 !
 ! A35   A(22,20,23)           108.3628         -DE/DX =    0.0                 !
 ! A36   A(22,20,24)           108.7123         -DE/DX =    0.0                 !
 ! A37   A(23,20,24)           108.6432         -DE/DX =    0.0                 !
 ! A38   A(18,21,25)           109.3121         -DE/DX =    0.0                 !
 ! A39   A(18,21,26)           112.622          -DE/DX =    0.0                 !
 ! A40   A(18,21,27)           109.0906         -DE/DX =    0.0                 !
 ! A41   A(25,21,26)           108.652          -DE/DX =    0.0                 !
 ! A42   A(25,21,27)           108.6161         -DE/DX =    0.0                 !
 ! A43   A(26,21,27)           108.4689         -DE/DX =    0.0                 !
 ! D1    D(3,1,2,5)           -179.8093         -DE/DX =    0.0                 !
 ! D2    D(3,1,2,6)             -0.0441         -DE/DX =    0.0                 !
 ! D3    D(4,1,2,5)              0.2136         -DE/DX =    0.0                 !
 ! D4    D(4,1,2,6)            179.9788         -DE/DX =    0.0                 !
 ! D5    D(2,1,3,7)           -179.981          -DE/DX =    0.0                 !
 ! D6    D(2,1,3,8)              0.0385         -DE/DX =    0.0                 !
 ! D7    D(4,1,3,7)             -0.0028         -DE/DX =    0.0                 !
 ! D8    D(4,1,3,8)           -179.9833         -DE/DX =    0.0                 !
 ! D9    D(2,1,4,9)            179.9842         -DE/DX =    0.0                 !
 ! D10   D(2,1,4,10)            -0.0093         -DE/DX =    0.0                 !
 ! D11   D(3,1,4,9)              0.0073         -DE/DX =    0.0                 !
 ! D12   D(3,1,4,10)          -179.9862         -DE/DX =    0.0                 !
 ! D13   D(1,2,5,11)           179.3003         -DE/DX =    0.0                 !
 ! D14   D(1,2,5,12)            -0.7853         -DE/DX =    0.0                 !
 ! D15   D(6,2,5,11)            -0.4629         -DE/DX =    0.0                 !
 ! D16   D(6,2,5,12)           179.4515         -DE/DX =    0.0                 !
 ! D17   D(1,3,7,13)            -0.0003         -DE/DX =    0.0                 !
 ! D18   D(1,3,7,14)          -180.0034         -DE/DX =    0.0                 !
 ! D19   D(8,3,7,13)           179.9812         -DE/DX =    0.0                 !
 ! D20   D(8,3,7,14)            -0.0219         -DE/DX =    0.0                 !
 ! D21   D(1,3,8,15)            -0.0847         -DE/DX =    0.0                 !
 ! D22   D(7,3,8,15)           179.9345         -DE/DX =    0.0                 !
 ! D23   D(1,4,9,13)            -0.0087         -DE/DX =    0.0                 !
 ! D24   D(1,4,9,16)          -179.9973         -DE/DX =    0.0                 !
 ! D25   D(10,4,9,13)          179.9849         -DE/DX =    0.0                 !
 ! D26   D(10,4,9,16)           -0.0037         -DE/DX =    0.0                 !
 ! D27   D(2,5,11,17)           -0.6205         -DE/DX =    0.0                 !
 ! D28   D(2,5,11,18)          175.7301         -DE/DX =    0.0                 !
 ! D29   D(12,5,11,17)         179.4679         -DE/DX =    0.0                 !
 ! D30   D(12,5,11,18)          -4.1815         -DE/DX =    0.0                 !
 ! D31   D(3,7,13,9)            -0.001          -DE/DX =    0.0                 !
 ! D32   D(3,7,13,19)          180.0            -DE/DX =    0.0                 !
 ! D33   D(14,7,13,9)         -179.9978         -DE/DX =    0.0                 !
 ! D34   D(14,7,13,19)           0.0032         -DE/DX =    0.0                 !
 ! D35   D(4,9,13,7)             0.0054         -DE/DX =    0.0                 !
 ! D36   D(4,9,13,19)         -179.9956         -DE/DX =    0.0                 !
 ! D37   D(16,9,13,7)          179.9941         -DE/DX =    0.0                 !
 ! D38   D(16,9,13,19)          -0.0069         -DE/DX =    0.0                 !
 ! D39   D(5,11,18,20)          13.4319         -DE/DX =    0.0                 !
 ! D40   D(5,11,18,21)         151.686          -DE/DX =    0.0                 !
 ! D41   D(17,11,18,20)       -170.0637         -DE/DX =    0.0                 !
 ! D42   D(17,11,18,21)        -31.8096         -DE/DX =    0.0                 !
 ! D43   D(11,18,20,22)        -57.8203         -DE/DX =    0.0                 !
 ! D44   D(11,18,20,23)       -176.1213         -DE/DX =    0.0                 !
 ! D45   D(11,18,20,24)         63.4421         -DE/DX =    0.0                 !
 ! D46   D(21,18,20,22)        163.4808         -DE/DX =    0.0                 !
 ! D47   D(21,18,20,23)         45.1799         -DE/DX =    0.0                 !
 ! D48   D(21,18,20,24)        -75.2568         -DE/DX =    0.0                 !
 ! D49   D(11,18,21,25)         45.6301         -DE/DX =    0.0                 !
 ! D50   D(11,18,21,26)        -75.2447         -DE/DX =    0.0                 !
 ! D51   D(11,18,21,27)        164.2652         -DE/DX =    0.0                 !
 ! D52   D(20,18,21,25)       -174.8136         -DE/DX =    0.0                 !
 ! D53   D(20,18,21,26)         64.3116         -DE/DX =    0.0                 !
 ! D54   D(20,18,21,27)        -56.1785         -DE/DX =    0.0                 !
 --------------------------------------------------------------------------------
 GradGradGradGradGradGradGradGradGradGradGradGradGradGradGradGradGradGrad

                          Input orientation:                          
 ---------------------------------------------------------------------
 Center     Atomic      Atomic             Coordinates (Angstroms)
 Number     Number       Type             X           Y           Z
 ---------------------------------------------------------------------
      1          6           0        1.643689    0.897842    0.140498
      2          6           0        0.282702    0.630934    0.750828
      3          6           0        2.570049    1.640928    0.899012
      4          6           0        2.024639    0.448450   -1.127404
      5          6           0       -0.747715   -0.156710   -0.000901
      6          8           0        0.029114    1.067930    1.884373
      7          6           0        3.843690    1.911110    0.369516
      8          8           0        2.283231    2.122182    2.153493
      9          6           0        3.274213    0.717369   -1.638626
     10          1           0        1.329272   -0.123171   -1.726271
     11          6           0       -1.924547   -0.385010    0.566775
     12          1           0       -0.509780   -0.517552   -0.983951
     13          6           0        4.185545    1.454007   -0.880753
     14          1           0        4.538817    2.482859    0.968158
     15          1           0        1.346587    1.816485    2.316060
     16          1           0        3.548025    0.360369   -2.621195
     17          1           0       -2.100720    0.000423    1.569329
     18          7           0       -3.055292   -1.027879    0.003432
     19          1           0        5.169891    1.666974   -1.281288
     20          6           0       -2.848727   -1.776156   -1.252876
     21          6           0       -3.937655   -1.712150    0.974266
     22          1           0       -2.448814   -1.110300   -2.015228
     23          1           0       -3.810538   -2.151943   -1.596231
     24          1           0       -2.165939   -2.621634   -1.132379
     25          1           0       -4.110739   -1.057923    1.826641
     26          1           0       -3.514825   -2.653636    1.336133
     27          1           0       -4.894176   -1.923800    0.498588
 ---------------------------------------------------------------------
                    Distance matrix (angstroms):
                    1          2          3          4          5
     1  C    0.000000
     2  C    1.515265   0.000000
     3  C    1.409136   2.504796   0.000000
     4  C    1.398089   2.568151   2.413677   0.000000
     5  C    2.617420   1.499079   3.879292   3.053060   0.000000
     6  O    2.382621   1.241047   2.784890   3.665607   2.378543
     7  C    2.432934   3.803273   1.405534   2.772921   5.049167
     8  O    2.441346   2.862413   1.373897   3.692226   4.361353
     9  C    2.420013   3.829634   2.790773   1.376627   4.429680
    10  H    2.150849   2.792848   3.397600   1.081170   2.700352
    11  C    3.815721   2.436794   4.941275   4.377324   1.326390
    12  H    2.811611   2.226321   4.205940   2.716067   1.073875
    13  C    2.795229   4.309488   2.410877   2.396142   5.263611
    14  H    3.402803   4.646652   2.142353   3.853737   5.987806
    15  H    2.380177   2.233234   1.880347   3.766792   3.694307
    16  H    3.397399   4.701710   3.871450   2.135386   5.058329
    17  H    4.107008   2.597728   4.995665   4.948907   2.078686
    18  N    5.080119   3.801640   6.290394   5.409624   2.466549
    19  H    3.879064   5.393282   3.393164   3.376550   6.323233
    20  C    5.410504   4.428855   6.757974   5.358574   2.933308
    21  C    6.217606   4.832327   7.321134   6.680880   3.680497
    22  H    5.042655   4.259594   6.422697   4.819721   2.803673
    23  H    6.485831   5.477929   7.830964   6.405555   3.988348
    24  H    5.340430   4.485701   6.687718   5.194842   3.060629
    25  H    6.307261   4.828244   7.264793   6.974124   3.932178
    26  H    6.375955   5.054918   7.460566   6.810111   3.959697
    27  H    7.129767   5.778439   8.281442   7.492758   4.534891
                    6          7          8          9         10
     6  O    0.000000
     7  C    4.190076   0.000000
     8  O    2.502981   2.379529   0.000000
     9  C    4.802612   2.404570   4.163618   0.000000
    10  H    4.018194   3.853949   4.583036   2.120609   0.000000
    11  C    2.768373   6.211573   5.148697   5.753793   3.989230
    12  H    3.321362   5.165556   4.961115   4.033886   2.022050
    13  C    5.007085   1.374402   3.643063   1.395540   3.370562
    14  H    4.814447   1.080958   2.573475   3.392860   4.934827
    15  H    1.575571   3.167572   0.998589   4.534682   4.483637
    16  H    5.760514   3.381799   5.244171   1.080677   2.440812
    17  H    2.403126   6.358167   4.905317   6.300388   4.758266
    18  N    4.176591   7.507838   6.560905   6.767930   4.799455
    19  H    6.066947   2.131564   4.509738   2.150124   4.260632
    20  C    5.119876   7.811308   7.289539   6.622452   4.517979
    21  C    4.928732   8.604828   7.402169   8.046167   6.128481
    22  H    5.108004   7.376417   7.086566   6.019572   3.915591
    23  H    6.101239   8.885931   8.334422   7.643850   5.527248
    24  H    5.247088   7.675747   7.286691   6.403162   4.337225
    25  H    4.654134   8.614599   7.148619   8.348488   6.564348
    26  H    5.168184   8.713151   7.556055   8.142721   6.264730
    27  H    5.925338   9.543244   8.403800   8.846809   6.850078
                   11         12         13         14         15
    11  C    0.000000
    12  H    2.103303   0.000000
    13  C    6.542977   5.093503   0.000000
    14  H    7.082433   6.188823   2.145183   0.000000
    15  H    4.313571   4.447910   4.290768   3.528630   0.000000
    16  H    6.377130   4.462857   2.152119   4.286034   5.598490
    17  H    1.088444   3.052643   6.901662   7.113884   3.967318
    18  N    1.417470   2.777587   7.705275   8.421785   5.728455
    19  H    7.612951   6.092555   1.083845   2.474658   5.251754
    20  C    2.469924   2.669659   7.749414   8.811811   6.576096
    21  C    2.445394   4.124561   8.913586   9.457733   6.494220
    22  H    2.732698   2.274804   7.202598   8.404664   6.459969
    23  H    3.370105   3.733781   8.800689   9.887831   7.592785
    24  H    2.819199   2.681801   7.550862   8.684576   6.627705
    25  H    2.611419   4.599819   9.081195   9.385571   6.187419
    26  H    2.875336   4.356138   9.004611   9.559296   6.676493
    27  H    3.345328   4.837188   9.785371  10.422116   7.499337
                   16         17         18         19         20
    16  H    0.000000
    17  H    7.042611   0.000000
    18  N    7.240145   2.102533   0.000000
    19  H    2.476493   7.985311   8.750221   0.000000
    20  C    6.881531   3.417688   1.476786   8.726637   0.000000
    21  C    8.559093   2.580956   1.479632   9.972632   2.479924
    22  H    6.204204   3.768809   2.109407   8.142271   1.088336
    23  H    7.842877   4.192485   2.095910   9.763781   1.088204
    24  H    6.615006   3.765456   2.149668   8.498749   1.093413
    25  H    8.969474   2.286150   2.106884  10.159448   3.404696
    26  H    8.638780   3.016306   2.151824  10.047032   2.813650
    27  H    9.285539   3.557038   2.104602  10.832685   2.696903
                   21         22         23         24         25
    21  C    0.000000
    22  H    3.393515   0.000000
    23  H    2.610945   1.764900   0.000000
    24  H    2.898981   1.773012   1.772138   0.000000
    25  H    1.088354   4.186251   3.605975   3.870819   0.000000
    26  H    1.093677   3.840558   2.989632   2.813196   1.772572
    27  H    1.089035   3.600118   2.369512   3.254275   1.768401
                   26         27
    26  H    0.000000
    27  H    1.771088   0.000000
 Stoichiometry    C11H13NO2
 Framework group  C1[X(C11H13NO2)]
 Deg. of freedom    75
 Full point group                 C1      NOp   1
 Largest Abelian subgroup         C1      NOp   1
 Largest concise Abelian subgroup C1      NOp   1
                         Standard orientation:                         
 ---------------------------------------------------------------------
 Center     Atomic      Atomic             Coordinates (Angstroms)
 Number     Number       Type             X           Y           Z
 ---------------------------------------------------------------------
      1          6           0       -1.374629    0.056873   -0.017871
      2          6           0       -0.016128   -0.611950   -0.074270
      3          6           0       -2.514207   -0.771288    0.016367
      4          6           0       -1.554270    1.443239    0.001334
      5          6           0        1.236707    0.210531   -0.108438
      6          8           0        0.050703   -1.851125   -0.087562
      7          6           0       -3.793345   -0.191113    0.068599
      8          8           0       -2.433645   -2.142738    0.001268
      9          6           0       -2.810705    2.003453    0.052644
     10          1           0       -0.693566    2.097035   -0.024493
     11          6           0        2.410907   -0.405372   -0.143486
     12          1           0        1.154871    1.281278   -0.105159
     13          6           0       -3.933944    1.175964    0.086261
     14          1           0       -4.653886   -0.844786    0.094139
     15          1           0       -1.452039   -2.321964   -0.037572
     16          1           0       -2.926814    3.077784    0.066633
     17          1           0        2.426604   -1.493676   -0.135945
     18          7           0        3.698206    0.175962   -0.262361
     19          1           0       -4.924129    1.614857    0.126601
     20          6           0        3.800580    1.634638   -0.055764
     21          6           0        4.797033   -0.598741    0.355476
     22          1           0        3.151876    2.151602   -0.760326
     23          1           0        4.827063    1.941819   -0.245924
     24          1           0        3.527629    1.936693    0.959033
     25          1           0        4.697327   -1.647019    0.080363
     26          1           0        4.803782   -0.522556    1.446475
     27          1           0        5.749391   -0.229305   -0.022054
 ---------------------------------------------------------------------
 Rotational constants (GHZ):      1.5885881      0.3158705      0.2654173
 1\1\GINC-NXN37\FOpt\RHF\STO-3G\C11H13N1O2\BTX156\14-Feb-2018\0\\#hf/ST
 O-3G opt Pop=ESP\\low_pop\\0,1\C,1.643689,0.897842,0.140498\C,0.282702
 ,0.630934,0.750828\C,2.570049,1.640928,0.899012\C,2.024639,0.44845,-1.
 127404\C,-0.747715,-0.15671,-0.000901\O,0.029114,1.06793,1.884373\C,3.
 84369,1.91111,0.369516\O,2.283231,2.122182,2.153493\C,3.274213,0.71736
 9,-1.638626\H,1.329272,-0.123171,-1.726271\C,-1.924547,-0.38501,0.5667
 75\H,-0.50978,-0.517552,-0.983951\C,4.185545,1.454007,-0.880753\H,4.53
 8817,2.482859,0.968158\H,1.346587,1.816485,2.31606\H,3.548025,0.360369
 ,-2.621195\H,-2.10072,0.000423,1.569329\N,-3.055292,-1.027879,0.003432
 \H,5.169891,1.666974,-1.281288\C,-2.848727,-1.776156,-1.252876\C,-3.93
 7655,-1.71215,0.974266\H,-2.448814,-1.1103,-2.015228\H,-3.810538,-2.15
 1943,-1.596231\H,-2.165939,-2.621634,-1.132379\H,-4.110739,-1.057923,1
 .826641\H,-3.514825,-2.653636,1.336133\H,-4.894176,-1.9238,0.498588\\V
 ersion=ES64L-G09RevD.01\State=1-A\HF=-620.3961204\RMSD=7.305e-09\RMSF=
 5.832e-06\Dipole=-0.9546915,-1.1481521,-0.7325754\Quadrupole=2.9817803
 ,-0.5728642,-2.408916,3.4567686,-3.2897362,-1.649362\PG=C01 [X(C11H13N
 1O2)]\\@


 ERROR IS A HARDY PLANT... IT FLOURISHETH IN EVERY SOIL.
            MARTIN FARQUHAR TUPPER
 Job cpu time:       0 days  0 hours  0 minutes  6.7 seconds.
 File lengths (MBytes):  RWF=      5 Int=      0 D2E=      0 Chk=      8 Scr=      1
 Normal termination of Gaussian 09 at Wed Feb 14 14:12:19 2018.
