12
	Energy:      19.5141487
C         -5.07249        4.52366       -0.05670
C         -6.40380        4.79734       -0.49536
C         -6.98089        6.02240       -0.17228
C         -6.21247        6.89240        0.55775
C         -4.88681        6.61283        0.99128
C         -4.31068        5.39621        0.67170
H         -3.29631        5.08806        0.95973
H         -4.52874        3.60562       -0.25153
H         -6.99077        4.10001       -1.06820
H         -7.99114        6.34412       -0.45225
H         -6.72269        7.82370        0.77298
H         -4.30126        7.30932        1.56314
