 Entering Gaussian System, Link 0=g09
 Input=H_opt_NBO.com
 Output=H_opt_NBO.out
 Initial command:
 /share/apps/gaussian/g09_D01/g09/l1.exe "/tmp/3611158.1.serial.q/Gau-11540.inp" -scrdir="/tmp/3611158.1.serial.q/"
 Entering Link 1 = /share/apps/gaussian/g09_D01/g09/l1.exe PID=     11541.
  
 Copyright (c) 1988,1990,1992,1993,1995,1998,2003,2009,2013,
            Gaussian, Inc.  All Rights Reserved.
  
 This is part of the Gaussian(R) 09 program.  It is based on
 the Gaussian(R) 03 system (copyright 2003, Gaussian, Inc.),
 the Gaussian(R) 98 system (copyright 1998, Gaussian, Inc.),
 the Gaussian(R) 94 system (copyright 1995, Gaussian, Inc.),
 the Gaussian 92(TM) system (copyright 1992, Gaussian, Inc.),
 the Gaussian 90(TM) system (copyright 1990, Gaussian, Inc.),
 the Gaussian 88(TM) system (copyright 1988, Gaussian, Inc.),
 the Gaussian 86(TM) system (copyright 1986, Carnegie Mellon
 University), and the Gaussian 82(TM) system (copyright 1983,
 Carnegie Mellon University). Gaussian is a federally registered
 trademark of Gaussian, Inc.
  
 This software contains proprietary and confidential information,
 including trade secrets, belonging to Gaussian, Inc.
  
 This software is provided under written license and may be
 used, copied, transmitted, or stored only in accord with that
 written license.
  
 The following legend is applicable only to US Government
 contracts under FAR:
  
                    RESTRICTED RIGHTS LEGEND
  
 Use, reproduction and disclosure by the US Government is
 subject to restrictions as set forth in subparagraphs (a)
 and (c) of the Commercial Computer Software - Restricted
 Rights clause in FAR 52.227-19.
  
 Gaussian, Inc.
 340 Quinnipiac St., Bldg. 40, Wallingford CT 06492
  
  
 ---------------------------------------------------------------
 Warning -- This program may not be used in any manner that
 competes with the business of Gaussian, Inc. or will provide
 assistance to any competitor of Gaussian, Inc.  The licensee
 of this program is prohibited from giving any competitor of
 Gaussian, Inc. access to this program.  By using this program,
 the user acknowledges that Gaussian, Inc. is engaged in the
 business of creating and licensing software in the field of
 computational chemistry and represents and warrants to the
 licensee that it is not a competitor of Gaussian, Inc. and that
 it will not use this program in any manner prohibited above.
 ---------------------------------------------------------------
  

 Cite this work as:
 Gaussian 09, Revision D.01,
 M. J. Frisch, G. W. Trucks, H. B. Schlegel, G. E. Scuseria, 
 M. A. Robb, J. R. Cheeseman, G. Scalmani, V. Barone, B. Mennucci, 
 G. A. Petersson, H. Nakatsuji, M. Caricato, X. Li, H. P. Hratchian, 
 A. F. Izmaylov, J. Bloino, G. Zheng, J. L. Sonnenberg, M. Hada, 
 M. Ehara, K. Toyota, R. Fukuda, J. Hasegawa, M. Ishida, T. Nakajima, 
 Y. Honda, O. Kitao, H. Nakai, T. Vreven, J. A. Montgomery, Jr., 
 J. E. Peralta, F. Ogliaro, M. Bearpark, J. J. Heyd, E. Brothers, 
 K. N. Kudin, V. N. Staroverov, T. Keith, R. Kobayashi, J. Normand, 
 K. Raghavachari, A. Rendell, J. C. Burant, S. S. Iyengar, J. Tomasi, 
 M. Cossi, N. Rega, J. M. Millam, M. Klene, J. E. Knox, J. B. Cross, 
 V. Bakken, C. Adamo, J. Jaramillo, R. Gomperts, R. E. Stratmann, 
 O. Yazyev, A. J. Austin, R. Cammi, C. Pomelli, J. W. Ochterski, 
 R. L. Martin, K. Morokuma, V. G. Zakrzewski, G. A. Voth, 
 P. Salvador, J. J. Dannenberg, S. Dapprich, A. D. Daniels, 
 O. Farkas, J. B. Foresman, J. V. Ortiz, J. Cioslowski, 
 and D. J. Fox, Gaussian, Inc., Wallingford CT, 2013.
 
 ******************************************
 Gaussian 09:  ES64L-G09RevD.01 24-Apr-2013
                 5-Feb-2016 
 ******************************************
 %chk=H_opt_NBO.chk
 %mem=2GB
 %nproc=4
 Will use up to    4 processors via shared memory.
 ----------------------------------------
 #wb97xd 6-311++g** geom=allcheck pop=nbo
 ----------------------------------------
 1/29=7,38=1/1;
 2/12=2,40=1/2;
 3/5=4,6=6,7=1111,11=2,14=-4,16=1,25=1,30=1,74=-58/1,2,3;
 4//1;
 5/5=2,38=5/2;
 6/7=2,8=2,9=2,10=2,28=1,40=1/1,7;
 99/5=1,9=1/99;
 Structure from the checkpoint file:  "H_opt_NBO.chk"
 -----------------
 Geom Opt H bigbas
 -----------------
 Charge =  0 Multiplicity = 1
 Redundant internal coordinates found in file.
 C,0,4.9110746209,3.4778287464,4.5379813095
 C,0,3.6878733885,2.8288108035,4.3285361263
 H,0,2.9033431364,2.9741227521,5.0611613876
 C,0,3.4996632886,2.0388100379,3.2141200657
 H,0,2.5442022549,1.5476684143,3.0642087007
 C,0,4.5229886766,1.8727016995,2.2770227222
 H,0,4.3687566926,1.2617005263,1.3962170174
 C,0,5.7346701922,2.4986766935,2.4846985101
 H,0,6.515643503,2.3695290319,1.746612444
 C,0,5.9681405789,3.3054791749,3.6112787896
 C,0,7.2630490562,3.9796216925,3.8598763815
 C,0,8.4197489011,3.7019977185,2.9952995066
 H,0,8.3344132228,2.9423903265,2.230666352
 C,0,9.5697246318,4.3734207534,3.1748610292
 H,0,9.5728128069,5.1193161083,3.9672099236
 C,0,10.8130449311,4.2236795615,2.4362222354
 C,0,10.995741821,3.2984151636,1.3998406132
 H,0,10.181719879,2.6438055781,1.1085073825
 C,0,12.1931559268,3.188251127,0.7252635968
 H,0,12.2743877263,2.4564384582,-0.0668444578
 C,0,13.2947045254,4.0084452892,1.0577624266
 C,0,13.1128745501,4.9457635378,2.0941431647
 H,0,13.9185255178,5.6058254163,2.3850000276
 C,0,11.9039342855,5.0386129039,2.7574123723
 H,0,11.7993308077,5.7712815064,3.5516948027
 C,0,14.6129071042,2.9986386175,-0.7334112245
 H,0,14.4038072127,1.9626556276,-0.4467825222
 H,0,15.6329618564,3.0349495309,-1.1125623482
 H,0,13.9349249198,3.2745381325,-1.5515471941
 C,0,15.5692356752,4.8155273853,0.6931339503
 H,0,15.2914905093,5.8557080714,0.478665231
 H,0,16.4342477146,4.5621277069,0.0823931141
 H,0,15.8736758732,4.7501781935,1.7431262044
 N,0,14.4931499226,3.8926545987,0.3991637325
 O,0,5.0228553289,4.2409523206,5.6250581686
 H,0,5.9201619916,4.6450111457,5.5958829903
 O,0,7.3727069695,4.7663956479,4.8080574678
 Recover connectivity data from disk.
                          Input orientation:                          
 ---------------------------------------------------------------------
 Center     Atomic      Atomic             Coordinates (Angstroms)
 Number     Number       Type             X           Y           Z
 ---------------------------------------------------------------------
      1          6           0        4.911075    3.477829    4.537981
      2          6           0        3.687873    2.828811    4.328536
      3          1           0        2.903343    2.974123    5.061161
      4          6           0        3.499663    2.038810    3.214120
      5          1           0        2.544202    1.547668    3.064209
      6          6           0        4.522989    1.872702    2.277023
      7          1           0        4.368757    1.261701    1.396217
      8          6           0        5.734670    2.498677    2.484699
      9          1           0        6.515644    2.369529    1.746612
     10          6           0        5.968141    3.305479    3.611279
     11          6           0        7.263049    3.979622    3.859876
     12          6           0        8.419749    3.701998    2.995300
     13          1           0        8.334413    2.942390    2.230666
     14          6           0        9.569725    4.373421    3.174861
     15          1           0        9.572813    5.119316    3.967210
     16          6           0       10.813045    4.223680    2.436222
     17          6           0       10.995742    3.298415    1.399841
     18          1           0       10.181720    2.643806    1.108507
     19          6           0       12.193156    3.188251    0.725264
     20          1           0       12.274388    2.456438   -0.066844
     21          6           0       13.294705    4.008445    1.057762
     22          6           0       13.112875    4.945764    2.094143
     23          1           0       13.918526    5.605825    2.385000
     24          6           0       11.903934    5.038613    2.757412
     25          1           0       11.799331    5.771282    3.551695
     26          6           0       14.612907    2.998639   -0.733411
     27          1           0       14.403807    1.962656   -0.446783
     28          1           0       15.632962    3.034950   -1.112562
     29          1           0       13.934925    3.274538   -1.551547
     30          6           0       15.569236    4.815527    0.693134
     31          1           0       15.291491    5.855708    0.478665
     32          1           0       16.434248    4.562128    0.082393
     33          1           0       15.873676    4.750178    1.743126
     34          7           0       14.493150    3.892655    0.399164
     35          8           0        5.022855    4.240952    5.625058
     36          1           0        5.920162    4.645011    5.595883
     37          8           0        7.372707    4.766396    4.808057
 ---------------------------------------------------------------------
                    Distance matrix (angstroms):
                    1          2          3          4          5
     1  C    0.000000
     2  C    1.400469   0.000000
     3  H    2.135046   1.083210   0.000000
     4  C    2.411528   1.378930   2.154523   0.000000
     5  H    3.391107   2.132565   2.480237   1.084712   0.000000
     6  C    2.799817   2.412523   3.404087   1.397476   2.154276
     7  H    3.882785   3.393808   4.302516   2.159628   2.488568
     8  C    2.419301   2.774546   3.857541   2.395577   3.379251
     9  H    3.405101   3.856625   4.939684   3.370325   4.264254
    10  C    1.416288   2.437476   3.406602   2.802778   3.887485
    11  C    2.498681   3.784956   4.632618   4.283319   5.367960
    12  C    3.839390   4.993057   5.935345   5.198203   6.258429
    13  H    4.162889   5.099440   6.124478   5.015820   6.013866
    14  C    4.935909   6.189746   7.068013   6.503660   7.573314
    15  H    4.975145   6.325305   7.090868   6.851263   7.935581
    16  C    6.309274   7.502971   8.427045   7.672309   8.713734
    17  C    6.848598   7.886871   8.888045   7.814692   8.789980
    18  H    6.343232   7.250714   8.288990   7.032034   7.959771
    19  C    8.224924   9.244058  10.254096   9.115505  10.063026
    20  H    8.744486   9.653303  10.694901   9.377363  10.261865
    21  C    9.092784  10.216687  11.183802  10.221163  11.209574
    22  C    8.683127   9.914870  10.813191  10.105373  11.143828
    23  H    9.502519  10.777541  11.637093  11.043719  12.095668
    24  C    7.382856   8.651896   9.517354   8.935277   9.994268
    25  H    7.326715   8.663565   9.446755   9.106579  10.184987
    26  C   11.051821  12.041948  13.064898  11.832517  12.735025
    27  H   10.828462  11.763721  12.791450  11.502537  12.375359
    28  H   12.127805  13.127573  14.147853  12.920116  13.819300
    29  H   10.888230  11.822695  12.865223  11.538340  12.411118
    30  C   11.409149  12.582923  13.523878  12.638833  13.636436
    31  H   11.396727  12.594743  13.519209  12.692463  13.701737
    32  H   12.402076  13.546371  14.505009  13.545417  14.522794
    33  H   11.384582  12.604356  13.505305  12.752707  13.772298
    34  N   10.445959  11.546676  12.526035  11.498585  12.465102
    35  O    1.332887   2.336084   2.532818   3.603077   4.467152
    36  H    1.870756   3.144497   3.489841   4.280642   5.234502
    37  O    2.791591   4.190725   4.821983   4.998082   6.059346
                    6          7          8          9         10
     6  C    0.000000
     7  H    1.083018   0.000000
     8  C    1.379546   2.140239   0.000000
     9  H    2.121048   2.441144   1.082298   0.000000
    10  C    2.433424   3.411973   1.405212   2.157022   0.000000
    11  C    3.801640   4.672648   2.533822   2.759873   1.480897
    12  C    4.364285   4.992259   2.986359   2.638240   2.558719
    13  H    3.958957   4.387192   2.649543   1.967334   2.763543
    14  C    5.703442   6.316363   4.324192   3.922102   3.781847
    15  H    6.236823   6.969462   4.878210   4.673186   4.050969
    16  C    6.716937   7.168248   5.363569   4.730866   5.069216
    17  C    6.685704   6.932904   5.430964   4.588503   5.492475
    18  H    5.829345   5.981934   4.657383   3.731290   4.945293
    19  C    7.935370   8.085975   6.729276   5.826457   6.862481
    20  H    8.119030   8.128158   7.019976   6.038155   7.349708
    21  C    9.109939   9.345143   7.840259   7.008297   7.790581
    22  C    9.124872   9.514148   7.783230   7.090925   7.485951
    23  H   10.110588  10.537893   8.754416   8.104555   8.366838
    24  C    8.045628   8.537964   6.677235   6.097492   6.242314
    25  H    8.352776   8.955213   6.973416   6.538164   6.331391
    26  C   10.589471  10.606361   9.456706   8.491877   9.680004
    27  H   10.249770  10.226936   9.167052   8.197540   9.456823
    28  H   11.673543  11.675646  10.545333   9.578265  10.760884
    29  H   10.257077  10.210407   9.172645   8.169617   9.493439
    30  C   11.540732  11.771777  10.261393   9.437174  10.147751
    31  H   11.621491  11.884987  10.326018   9.527677  10.160797
    32  H   12.406752  12.577560  11.158399  10.293485  11.116276
    33  H   11.721903  12.027177  10.412426   9.656100  10.183162
    34  N   10.344597  10.508062   9.110631   8.232626   9.128978
    35  O    4.131322   5.214104   3.661156   4.557739   2.413293
    36  H    4.544516   5.611670   3.784261   4.511020   2.394849
    37  O    4.785446   5.739970   3.636442   3.981454   2.353585
                   11         12         13         14         15
    11  C    0.000000
    12  C    1.470552   0.000000
    13  H    2.208618   1.081180   0.000000
    14  C    2.438253   1.343687   2.113137   0.000000
    15  H    2.577874   2.069531   3.047659   1.088203   0.000000
    16  C    3.832600   2.512486   2.797780   1.453910   2.164316
    17  C    4.522036   3.056813   2.810640   2.517908   3.454243
    18  H    4.227656   2.790035   2.181957   2.763318   3.830287
    19  C    5.895593   4.433464   4.149287   3.779887   4.594064
    20  H    6.546200   5.078030   4.586731   4.636667   5.537420
    21  C    6.650830   5.254822   5.207367   4.300092   4.852978
    22  C    6.186413   4.938063   5.183226   3.748258   4.008807
    23  H    7.008221   5.850946   6.188701   4.588548   4.650301
    24  C    4.886175   3.739342   4.172900   2.462779   2.627594
    25  H    4.887011   4.001635   4.664054   2.658413   2.356925
    26  C    8.722444   7.263140   6.943227   6.526738   7.210802
    27  H    8.579388   7.119143   6.705681   6.503572   7.265421
    28  H    9.781257   8.327660   8.028360   7.545618   8.177657
    29  H    8.619430   7.160566   6.766180   6.526979   7.272407
    30  C    8.928591   7.593094   7.629895   6.507577   6.838783
    31  H    8.911126   7.628417   7.743246   6.496557   6.739102
    32  H    9.935773   8.570708   8.534984   7.531311   7.904527
    33  H    8.900409   7.630704   7.768286   6.475462   6.692061
    34  N    8.016137   6.607758   6.495186   5.672367   6.200433
    35  O    2.864023   4.329548   4.916765   5.166724   4.921595
    36  H    2.293427   3.728303   4.477969   4.387985   4.027332
    37  O    1.236966   2.348474   3.300730   2.765619   2.381605
                   16         17         18         19         20
    16  C    0.000000
    17  C    1.401278   0.000000
    18  H    2.158101   1.084445   0.000000
    19  C    2.429856   1.378764   2.118767   0.000000
    20  H    3.394703   2.120147   2.407450   1.081473   0.000000
    21  C    2.846948   2.430307   3.399337   1.413040   2.171293
    22  C    2.434674   2.770932   3.855147   2.410096   3.401421
    23  H    3.399553   3.851928   4.936265   3.402395   4.316639
    24  C    1.399042   2.386651   3.379351   2.763533   3.844644
    25  H    2.147583   3.375100   4.285666   3.849137   4.930283
    26  C    5.097671   4.210049   4.811859   2.831763   2.491378
    27  H    5.130060   4.099900   4.550705   2.786172   2.218694
    28  H    6.102340   5.280662   5.899338   3.902995   3.564859
    29  H    5.152602   4.165340   4.643303   2.867939   2.372976
    30  C    5.099999   4.870104   5.823593   3.747929   4.122971
    31  H    5.152865   5.083480   6.068177   4.095829   4.577720
    32  H    6.103522   5.736722   6.620194   4.504185   4.664829
    33  H    5.134936   5.100951   6.102287   4.125759   4.635958
    34  N    4.219284   3.685965   4.544361   2.427447   2.683801
    35  O    6.610240   7.376735   7.040170   8.748107   9.389727
    36  H    5.839630   6.721726   6.504017   8.074375   8.788203
    37  O    4.213795   5.186260   5.107114   6.511257   7.288830
                   21         22         23         24         25
    21  C    0.000000
    22  C    1.409153   0.000000
    23  H    2.168487   1.081366   0.000000
    24  C    2.425757   1.382058   2.125794   0.000000
    25  H    3.400505   2.128693   2.424776   1.085647   0.000000
    26  C    2.442472   3.746526   4.123600   4.866814   5.828027
    27  H    2.771104   4.125742   4.639739   5.096837   6.105469
    28  H    3.335484   4.503888   4.667080   5.735592   6.628690
    29  H    2.785139   4.093876   4.575104   5.079765   6.069396
    30  C    2.440866   2.830812   2.492353   4.212534   4.826699
    31  H    2.781167   2.860793   2.362538   4.163637   4.652507
    32  H    3.333863   3.902030   3.566534   5.282661   5.914437
    33  H    2.769654   2.789891   2.228620   4.107410   4.573167
    34  N    1.372382   2.426346   2.684901   3.684914   4.552401
    35  O    9.451864   8.855085   9.565239   7.497260   7.249922
    36  H    8.682375   8.005482   8.672183   6.634559   6.325489
    37  O    7.050479   6.351931   7.030191   4.981091   4.709909
                   26         27         28         29         30
    26  C    0.000000
    27  H    1.095052   0.000000
    28  H    1.088846   1.761788   0.000000
    29  H    1.097783   1.778030   1.770152   0.000000
    30  C    2.500136   3.285804   2.536742   3.175565   0.000000
    31  H    3.176862   4.098816   3.256576   3.553093   1.097777
    32  H    2.535215   3.340654   2.098154   3.251809   1.088789
    33  H    3.284915   3.837512   3.339897   4.097700   1.095189
    34  N    1.447872   2.109148   2.078496   2.121074   1.447782
    35  O   11.573356  11.404391  12.626335  11.483144  11.656764
    36  H   10.878158  10.755514  11.913606  10.825912  10.824539
    37  O    9.287268   9.214699  10.309387   9.259207   9.171592
                   31         32         33         34         35
    31  H    0.000000
    32  H    1.770953   0.000000
    33  H    1.777638   1.762849   0.000000
    34  N    2.120671   2.077594   2.108894   0.000000
    35  O   11.599037  12.690318  11.535554  10.822096   0.000000
    36  H   10.745860  11.872297  10.673670  10.053261   0.984517
    37  O    9.090510  10.221798   9.036622   8.420361   2.542712
                   36         37
    36  H    0.000000
    37  O    1.656892   0.000000
 Stoichiometry    C17H17NO2
 Framework group  C1[X(C17H17NO2)]
 Deg. of freedom   105
 Full point group                 C1      NOp   1
 Largest Abelian subgroup         C1      NOp   1
 Largest concise Abelian subgroup C1      NOp   1
                         Standard orientation:                         
 ---------------------------------------------------------------------
 Center     Atomic      Atomic             Coordinates (Angstroms)
 Number     Number       Type             X           Y           Z
 ---------------------------------------------------------------------
      1          6           0        4.776544   -0.493715    0.081039
      2          6           0        5.918572    0.316862    0.088162
      3          1           0        6.883445   -0.165190    0.188103
      4          6           0        5.803115    1.685153   -0.037924
      5          1           0        6.698153    2.297937   -0.036061
      6          6           0        4.548389    2.285037   -0.174814
      7          1           0        4.460946    3.358768   -0.286093
      8          6           0        3.418858    1.493030   -0.169062
      9          1           0        2.453909    1.969169   -0.285397
     10          6           0        3.494238    0.096240   -0.035207
     11          6           0        2.295466   -0.773054   -0.017063
     12          6           0        0.950745   -0.178549    0.011442
     13          1           0        0.851958    0.894406    0.100656
     14          6           0       -0.134736   -0.968022   -0.051484
     15          1           0        0.051764   -2.036647   -0.137758
     16          6           0       -1.531529   -0.565839   -0.018719
     17          6           0       -1.955613    0.763459    0.110511
     18          1           0       -1.224053    1.559862    0.191657
     19          6           0       -3.291981    1.101585    0.138457
     20          1           0       -3.558888    2.144793    0.238759
     21          6           0       -4.295953    0.112020    0.041073
     22          6           0       -3.873875   -1.225334   -0.096939
     23          1           0       -4.598279   -2.023368   -0.184880
     24          6           0       -2.528738   -1.541661   -0.121984
     25          1           0       -2.239270   -2.582580   -0.228406
     26          6           0       -6.027510    1.833112    0.113348
     27          1           0       -5.633708    2.341471    0.999706
     28          1           0       -7.113875    1.892906    0.156027
     29          1           0       -5.690558    2.379801   -0.777002
     30          6           0       -6.630465   -0.581826   -0.121597
     31          1           0       -6.544038   -1.053225   -1.109235
     32          1           0       -7.619661   -0.133461   -0.044648
     33          1           0       -6.560838   -1.365021    0.640764
     34          7           0       -5.627426    0.441945    0.083047
     35          8           0        4.957272   -1.809886    0.188837
     36          1           0        4.065917   -2.223588    0.128747
     37          8           0        2.429714   -2.002695   -0.010301
 ---------------------------------------------------------------------
 Rotational constants (GHZ):      1.1111355      0.1069303      0.0977834
 Standard basis: 6-311++G(d,p) (5D, 7F)
 There are   579 symmetry adapted cartesian basis functions of A   symmetry.
 There are   559 symmetry adapted basis functions of A   symmetry.
   559 basis functions,   873 primitive gaussians,   579 cartesian basis functions
    71 alpha electrons       71 beta electrons
       nuclear repulsion energy      1361.2753596566 Hartrees.
 NAtoms=   37 NActive=   37 NUniq=   37 SFac= 1.00D+00 NAtFMM=   60 NAOKFM=F Big=F
 Integral buffers will be    131072 words long.
 Raffenetti 2 integral format.
 Two-electron integral symmetry is turned on.
 Nuclear repulsion after empirical dispersion term =     1361.2524790776 Hartrees.
 One-electron integrals computed using PRISM.
 NBasis=   559 RedAO= T EigKep=  1.11D-06  NBF=   559
 NBsUse=   553 1.00D-06 EigRej=  6.86D-07 NBFU=   553
 ExpMin= 3.60D-02 ExpMax= 8.59D+03 ExpMxC= 1.30D+03 IAcc=3 IRadAn=         5 AccDes= 0.00D+00
 Harris functional with IExCor= 4639 and IRadAn=       5 diagonalized for initial guess.
 HarFok:  IExCor= 4639 AccDes= 0.00D+00 IRadAn=         5 IDoV= 1 UseB2=F ITyADJ=14
 ICtDFT=  3500011 ScaDFX=  1.000000  1.000000  1.000000  1.000000
 FoFCou: FMM=F IPFlag=           0 FMFlag=      100000 FMFlg1=           0
         NFxFlg=           0 DoJE=T BraDBF=F KetDBF=T FulRan=T
         wScrn=  0.000000 ICntrl=     500 IOpCl=  0 I1Cent=   200000004 NGrid=           0
         NMat0=    1 NMatS0=      1 NMatT0=    0 NMatD0=    1 NMtDS0=    0 NMtDT0=    0
 Petite list used in FoFCou.
 Requested convergence on RMS density matrix=1.00D-08 within 128 cycles.
 Requested convergence on MAX density matrix=1.00D-06.
 Requested convergence on             energy=1.00D-06.
 No special actions if energy rises.
 SCF Done:  E(RwB97XD) =  -863.170180145     A.U. after   17 cycles
            NFock= 17  Conv=0.61D-08     -V/T= 2.0041

 **********************************************************************

            Population analysis using the SCF density.

 **********************************************************************

 Orbital symmetries:
       Occupied  (A) (A) (A) (A) (A) (A) (A) (A) (A) (A) (A) (A)
                 (A) (A) (A) (A) (A) (A) (A) (A) (A) (A) (A) (A)
                 (A) (A) (A) (A) (A) (A) (A) (A) (A) (A) (A) (A)
                 (A) (A) (A) (A) (A) (A) (A) (A) (A) (A) (A) (A)
                 (A) (A) (A) (A) (A) (A) (A) (A) (A) (A) (A) (A)
                 (A) (A) (A) (A) (A) (A) (A) (A) (A) (A) (A)
       Virtual   (A) (A) (A) (A) (A) (A) (A) (A) (A) (A) (A) (A)
                 (A) (A) (A) (A) (A) (A) (A) (A) (A) (A) (A) (A)
                 (A) (A) (A) (A) (A) (A) (A) (A) (A) (A) (A) (A)
                 (A) (A) (A) (A) (A) (A) (A) (A) (A) (A) (A) (A)
                 (A) (A) (A) (A) (A) (A) (A) (A) (A) (A) (A) (A)
                 (A) (A) (A) (A) (A) (A) (A) (A) (A) (A) (A) (A)
                 (A) (A) (A) (A) (A) (A) (A) (A) (A) (A) (A) (A)
                 (A) (A) (A) (A) (A) (A) (A) (A) (A) (A) (A) (A)
                 (A) (A) (A) (A) (A) (A) (A) (A) (A) (A) (A) (A)
                 (A) (A) (A) (A) (A) (A) (A) (A) (A) (A) (A) (A)
                 (A) (A) (A) (A) (A) (A) (A) (A) (A) (A) (A) (A)
                 (A) (A) (A) (A) (A) (A) (A) (A) (A) (A) (A) (A)
                 (A) (A) (A) (A) (A) (A) (A) (A) (A) (A) (A) (A)
                 (A) (A) (A) (A) (A) (A) (A) (A) (A) (A) (A) (A)
                 (A) (A) (A) (A) (A) (A) (A) (A) (A) (A) (A) (A)
                 (A) (A) (A) (A) (A) (A) (A) (A) (A) (A) (A) (A)
                 (A) (A) (A) (A) (A) (A) (A) (A) (A) (A) (A) (A)
                 (A) (A) (A) (A) (A) (A) (A) (A) (A) (A) (A) (A)
                 (A) (A) (A) (A) (A) (A) (A) (A) (A) (A) (A) (A)
                 (A) (A) (A) (A) (A) (A) (A) (A) (A) (A) (A) (A)
                 (A) (A) (A) (A) (A) (A) (A) (A) (A) (A) (A) (A)
                 (A) (A) (A) (A) (A) (A) (A) (A) (A) (A) (A) (A)
                 (A) (A) (A) (A) (A) (A) (A) (A) (A) (A) (A) (A)
                 (A) (A) (A) (A) (A) (A) (A) (A) (A) (A) (A) (A)
                 (A) (A) (A) (A) (A) (A) (A) (A) (A) (A) (A) (A)
                 (A) (A) (A) (A) (A) (A) (A) (A) (A) (A) (A) (A)
                 (A) (A) (A) (A) (A) (A) (A) (A) (A) (A) (A) (A)
                 (A) (A) (A) (A) (A) (A) (A) (A) (A) (A) (A) (A)
                 (A) (A) (A) (A) (A) (A) (A) (A) (A) (A) (A) (A)
                 (A) (A) (A) (A) (A) (A) (A) (A) (A) (A) (A) (A)
                 (A) (A) (A) (A) (A) (A) (A) (A) (A) (A) (A) (A)
                 (A) (A) (A) (A) (A) (A) (A) (A) (A) (A) (A) (A)
                 (A) (A) (A) (A) (A) (A) (A) (A) (A) (A) (A) (A)
                 (A) (A) (A) (A) (A) (A) (A) (A) (A) (A) (A) (A)
                 (A) (A) (A) (A) (A) (A) (A) (A) (A) (A) (A) (A)
                 (A) (A) (A) (A) (A) (A) (A) (A) (A) (A) (A) (A)
                 (A) (A) (A) (A) (A) (A) (A) (A) (A) (A) (A) (A)
                 (A) (A) (A) (A) (A) (A) (A) (A) (A) (A) (A) (A)
                 (A) (A) (A) (A) (A) (A) (A) (A) (A) (A) (A) (A)
                 (A) (A) (A) (A) (A) (A) (A) (A) (A) (A) (A) (A)
                 (A) (A)
 The electronic state is 1-A.
 Alpha  occ. eigenvalues --  -19.25947 -19.23445 -14.47007 -10.38114 -10.35794
 Alpha  occ. eigenvalues --  -10.34667 -10.32939 -10.32892 -10.30937 -10.30146
 Alpha  occ. eigenvalues --  -10.30073 -10.30039 -10.29817 -10.29760 -10.29644
 Alpha  occ. eigenvalues --  -10.29380 -10.29147 -10.28649 -10.28487 -10.28317
 Alpha  occ. eigenvalues --   -1.17067  -1.13803  -1.07390  -0.97037  -0.96295
 Alpha  occ. eigenvalues --   -0.90843  -0.87393  -0.86708  -0.84954  -0.84331
 Alpha  occ. eigenvalues --   -0.83784  -0.78670  -0.74872  -0.72217  -0.71462
 Alpha  occ. eigenvalues --   -0.69911  -0.68018  -0.64750  -0.63153  -0.61648
 Alpha  occ. eigenvalues --   -0.60849  -0.58708  -0.57859  -0.57342  -0.55973
 Alpha  occ. eigenvalues --   -0.55198  -0.54403  -0.53047  -0.52288  -0.52258
 Alpha  occ. eigenvalues --   -0.51900  -0.51430  -0.51024  -0.49766  -0.48319
 Alpha  occ. eigenvalues --   -0.48089  -0.47468  -0.47165  -0.47050  -0.46013
 Alpha  occ. eigenvalues --   -0.45401  -0.42991  -0.42851  -0.42372  -0.41033
 Alpha  occ. eigenvalues --   -0.35092  -0.34492  -0.34443  -0.33894  -0.30090
 Alpha  occ. eigenvalues --   -0.27103
 Alpha virt. eigenvalues --   -0.02017   0.02846   0.03503   0.03954   0.04470
 Alpha virt. eigenvalues --    0.04787   0.04949   0.05692   0.06384   0.06507
 Alpha virt. eigenvalues --    0.06698   0.06730   0.08003   0.08037   0.08231
 Alpha virt. eigenvalues --    0.08777   0.09381   0.09555   0.09983   0.10444
 Alpha virt. eigenvalues --    0.11035   0.11658   0.12317   0.12411   0.13139
 Alpha virt. eigenvalues --    0.13262   0.13568   0.14062   0.14446   0.14989
 Alpha virt. eigenvalues --    0.15203   0.15498   0.15936   0.16058   0.16172
 Alpha virt. eigenvalues --    0.16270   0.16643   0.16976   0.17134   0.17398
 Alpha virt. eigenvalues --    0.17590   0.17729   0.18424   0.18560   0.18979
 Alpha virt. eigenvalues --    0.19607   0.19901   0.20145   0.20317   0.20639
 Alpha virt. eigenvalues --    0.20787   0.21019   0.21391   0.21798   0.21836
 Alpha virt. eigenvalues --    0.22280   0.22430   0.22542   0.22855   0.23208
 Alpha virt. eigenvalues --    0.23784   0.23884   0.24176   0.24282   0.24668
 Alpha virt. eigenvalues --    0.25241   0.25466   0.25765   0.26066   0.26184
 Alpha virt. eigenvalues --    0.26788   0.26886   0.27366   0.27805   0.28079
 Alpha virt. eigenvalues --    0.28364   0.28732   0.29408   0.29530   0.30209
 Alpha virt. eigenvalues --    0.30533   0.30675   0.30727   0.30896   0.31628
 Alpha virt. eigenvalues --    0.31710   0.31903   0.32297   0.32870   0.33033
 Alpha virt. eigenvalues --    0.33793   0.34118   0.34526   0.34747   0.34882
 Alpha virt. eigenvalues --    0.35614   0.35814   0.35988   0.36568   0.37082
 Alpha virt. eigenvalues --    0.37388   0.37960   0.38063   0.38231   0.38880
 Alpha virt. eigenvalues --    0.39213   0.39336   0.39736   0.40339   0.40587
 Alpha virt. eigenvalues --    0.40822   0.41224   0.41661   0.42034   0.42963
 Alpha virt. eigenvalues --    0.43581   0.43836   0.44283   0.45313   0.46068
 Alpha virt. eigenvalues --    0.46265   0.46847   0.48259   0.49131   0.49423
 Alpha virt. eigenvalues --    0.49944   0.50506   0.51169   0.51889   0.53027
 Alpha virt. eigenvalues --    0.54208   0.54473   0.57088   0.57705   0.58663
 Alpha virt. eigenvalues --    0.60352   0.61049   0.61258   0.61636   0.62093
 Alpha virt. eigenvalues --    0.62470   0.62619   0.63579   0.63912   0.64296
 Alpha virt. eigenvalues --    0.64523   0.65165   0.65596   0.66254   0.66835
 Alpha virt. eigenvalues --    0.67089   0.67603   0.68073   0.68403   0.68941
 Alpha virt. eigenvalues --    0.69790   0.70182   0.71579   0.72032   0.72237
 Alpha virt. eigenvalues --    0.72581   0.73427   0.73473   0.74145   0.75040
 Alpha virt. eigenvalues --    0.75355   0.75522   0.76003   0.76789   0.76857
 Alpha virt. eigenvalues --    0.77506   0.77739   0.78843   0.79281   0.79642
 Alpha virt. eigenvalues --    0.80319   0.80367   0.81108   0.82611   0.83228
 Alpha virt. eigenvalues --    0.83835   0.84831   0.85407   0.86394   0.86930
 Alpha virt. eigenvalues --    0.88120   0.88786   0.89828   0.91212   0.91628
 Alpha virt. eigenvalues --    0.92145   0.93964   0.94144   0.94785   0.94980
 Alpha virt. eigenvalues --    0.95439   0.96828   0.97315   0.97437   0.97649
 Alpha virt. eigenvalues --    0.98870   0.99175   0.99814   1.00258   1.00761
 Alpha virt. eigenvalues --    1.00954   1.02765   1.03530   1.04930   1.05332
 Alpha virt. eigenvalues --    1.06046   1.06235   1.07037   1.07659   1.08370
 Alpha virt. eigenvalues --    1.08702   1.09425   1.10361   1.11539   1.12450
 Alpha virt. eigenvalues --    1.13676   1.14422   1.14905   1.15129   1.16333
 Alpha virt. eigenvalues --    1.17221   1.17682   1.18691   1.19529   1.20682
 Alpha virt. eigenvalues --    1.20831   1.21551   1.22026   1.22557   1.24590
 Alpha virt. eigenvalues --    1.25422   1.29836   1.31528   1.31707   1.33648
 Alpha virt. eigenvalues --    1.34508   1.36385   1.37378   1.39938   1.40614
 Alpha virt. eigenvalues --    1.43080   1.46357   1.48330   1.48816   1.50390
 Alpha virt. eigenvalues --    1.52672   1.53200   1.53456   1.55743   1.56296
 Alpha virt. eigenvalues --    1.56842   1.58662   1.59194   1.59876   1.60418
 Alpha virt. eigenvalues --    1.61984   1.62100   1.62929   1.63336   1.63431
 Alpha virt. eigenvalues --    1.64464   1.65197   1.65388   1.65532   1.65747
 Alpha virt. eigenvalues --    1.66315   1.67786   1.68866   1.69451   1.69735
 Alpha virt. eigenvalues --    1.70764   1.73419   1.74722   1.75045   1.75818
 Alpha virt. eigenvalues --    1.77727   1.78769   1.79410   1.80197   1.81243
 Alpha virt. eigenvalues --    1.81442   1.81766   1.82757   1.83267   1.84139
 Alpha virt. eigenvalues --    1.85062   1.85813   1.87258   1.87729   1.89138
 Alpha virt. eigenvalues --    1.90176   1.91064   1.93528   1.94638   1.96568
 Alpha virt. eigenvalues --    1.96810   1.98168   1.98562   2.00742   2.01307
 Alpha virt. eigenvalues --    2.01766   2.02285   2.02352   2.04031   2.04094
 Alpha virt. eigenvalues --    2.04766   2.05488   2.05915   2.07437   2.07836
 Alpha virt. eigenvalues --    2.08962   2.09417   2.11801   2.12994   2.13240
 Alpha virt. eigenvalues --    2.15071   2.15527   2.16063   2.17768   2.18147
 Alpha virt. eigenvalues --    2.19230   2.20470   2.21233   2.23509   2.25309
 Alpha virt. eigenvalues --    2.27218   2.29017   2.30030   2.32446   2.34287
 Alpha virt. eigenvalues --    2.36595   2.36972   2.38607   2.40520   2.42275
 Alpha virt. eigenvalues --    2.43903   2.44078   2.46696   2.48583   2.48746
 Alpha virt. eigenvalues --    2.51298   2.53761   2.55578   2.56043   2.56480
 Alpha virt. eigenvalues --    2.56801   2.57234   2.58007   2.58744   2.61861
 Alpha virt. eigenvalues --    2.63336   2.64574   2.68301   2.70444   2.70712
 Alpha virt. eigenvalues --    2.71118   2.73540   2.74690   2.74893   2.78024
 Alpha virt. eigenvalues --    2.78701   2.79373   2.79901   2.80165   2.80423
 Alpha virt. eigenvalues --    2.81749   2.82616   2.83012   2.83526   2.84228
 Alpha virt. eigenvalues --    2.84928   2.84995   2.86032   2.86461   2.87201
 Alpha virt. eigenvalues --    2.88795   2.89926   2.90607   2.91180   2.91724
 Alpha virt. eigenvalues --    2.92288   2.93349   2.93632   2.95145   2.96100
 Alpha virt. eigenvalues --    2.97802   2.98891   3.01819   3.02095   3.03834
 Alpha virt. eigenvalues --    3.04789   3.06323   3.06896   3.08646   3.09760
 Alpha virt. eigenvalues --    3.15111   3.18782   3.19450   3.19698   3.21917
 Alpha virt. eigenvalues --    3.23248   3.23759   3.24045   3.28274   3.30112
 Alpha virt. eigenvalues --    3.31294   3.31685   3.35639   3.37794   3.40025
 Alpha virt. eigenvalues --    3.43284   3.46538   3.47733   3.48451   3.51224
 Alpha virt. eigenvalues --    3.60222   3.61109   3.61679   3.63766   3.65736
 Alpha virt. eigenvalues --    3.66247   3.69526   3.70814   3.75101   3.76940
 Alpha virt. eigenvalues --    3.78903   3.79373   3.81500   3.82449   3.87861
 Alpha virt. eigenvalues --    3.89882   3.90204   3.93894   4.03801   4.05406
 Alpha virt. eigenvalues --    4.07932   4.11886   4.13776   4.14591   4.16457
 Alpha virt. eigenvalues --    4.27305   4.28699   4.29786   4.31192   4.36624
 Alpha virt. eigenvalues --    4.53154   4.75873   4.94530   4.95102   5.02440
 Alpha virt. eigenvalues --    5.13901   5.18320   5.18596   5.43553   5.61937
 Alpha virt. eigenvalues --    5.90202   5.93745  23.72355  23.79695  23.95381
 Alpha virt. eigenvalues --   24.02068  24.04150  24.06463  24.07511  24.08837
 Alpha virt. eigenvalues --   24.10112  24.10338  24.16572  24.17015  24.25128
 Alpha virt. eigenvalues --   24.26398  24.32667  24.33809  24.36063  35.74573
 Alpha virt. eigenvalues --   50.13499  50.19076
          Condensed to atoms (all electrons):
               1          2          3          4          5          6
     1  C   17.951207  -1.306205  -0.136638  -0.692354   0.013778   0.833345
     2  C   -1.306205  10.128219   0.579381   0.637824  -0.103525  -0.861396
     3  H   -0.136638   0.579381   0.460063  -0.036134  -0.012219   0.001899
     4  C   -0.692354   0.637824  -0.036134   7.416941   0.446768  -0.693563
     5  H    0.013778  -0.103525  -0.012219   0.446768   0.480989  -0.055766
     6  C    0.833345  -0.861396   0.001899  -0.693563  -0.055766  10.283989
     7  H    0.049937   0.009464   0.001451  -0.099437  -0.010608   0.440364
     8  C   -4.635755   2.501741   0.017582   1.793109  -0.039301  -4.081592
     9  H   -0.040925   0.088817   0.000046   0.082136   0.002151  -0.284213
    10  C    1.846430  -2.338372  -0.091069  -0.028803   0.091947  -1.939360
    11  C   -4.222316  -1.818039  -0.004456  -1.412711  -0.006525   1.231405
    12  C   -3.248444  -0.516421   0.004751  -0.750353  -0.008898   1.091138
    13  H    0.056672  -0.052821   0.000163  -0.019675  -0.000786   0.026716
    14  C   -0.986407  -0.123417   0.003115  -0.249904  -0.002998   0.527992
    15  H   -0.073291  -0.000718  -0.000082  -0.005047  -0.000043   0.011696
    16  C    0.067875   0.027561  -0.000927   0.042548   0.000595  -0.227907
    17  C   -0.014214   0.034605   0.000395  -0.025631  -0.000421   0.103816
    18  H    0.005143   0.004962   0.000001  -0.000945  -0.000018   0.000748
    19  C    0.031509   0.007426  -0.000007   0.001368   0.000026  -0.026059
    20  H   -0.000636  -0.000206  -0.000001   0.000137   0.000003  -0.000805
    21  C    0.003638   0.001003   0.000007  -0.000452  -0.000007   0.000537
    22  C   -0.024616  -0.003957  -0.000009  -0.000019   0.000003   0.008445
    23  H   -0.000530  -0.000016  -0.000001   0.000004   0.000000  -0.000037
    24  C   -0.015249  -0.015756  -0.000018   0.000462   0.000031   0.024296
    25  H    0.008396   0.000422   0.000008   0.000201   0.000002  -0.000863
    26  C    0.000050   0.000004   0.000000   0.000005   0.000000  -0.000172
    27  H    0.000006   0.000000   0.000000  -0.000001   0.000000   0.000033
    28  H    0.000002   0.000000   0.000000   0.000000   0.000000  -0.000009
    29  H    0.000000   0.000001   0.000000  -0.000001   0.000000   0.000019
    30  C   -0.000022  -0.000002   0.000000   0.000000   0.000000   0.000010
    31  H    0.000008   0.000000   0.000000   0.000000   0.000000   0.000001
    32  H   -0.000002   0.000000   0.000000   0.000000   0.000000   0.000002
    33  H    0.000006   0.000000   0.000000   0.000000   0.000000  -0.000003
    34  N    0.000013   0.000000   0.000000   0.000001   0.000000  -0.000006
    35  O    0.386516  -0.416369  -0.026916   0.013714   0.000886   0.000838
    36  H    0.019258   0.063880   0.002323  -0.001772  -0.000413   0.001237
    37  O    0.013353  -0.099059   0.001318  -0.027475  -0.000307   0.014693
               7          8          9         10         11         12
     1  C    0.049937  -4.635755  -0.040925   1.846430  -4.222316  -3.248444
     2  C    0.009464   2.501741   0.088817  -2.338372  -1.818039  -0.516421
     3  H    0.001451   0.017582   0.000046  -0.091069  -0.004456   0.004751
     4  C   -0.099437   1.793109   0.082136  -0.028803  -1.412711  -0.750353
     5  H   -0.010608  -0.039301   0.002151   0.091947  -0.006525  -0.008898
     6  C    0.440364  -4.081592  -0.284213  -1.939360   1.231405   1.091138
     7  H    0.480911  -0.160289  -0.023838   0.043868   0.011261   0.019987
     8  C   -0.160289  19.495334   0.974234  -2.767553  -0.637173  -2.897564
     9  H   -0.023838   0.974234   0.603124  -0.139984   0.052749  -0.217777
    10  C    0.043868  -2.767553  -0.139984  20.201675  -0.556339  -6.473871
    11  C    0.011261  -0.637173   0.052749  -0.556339  18.465198  -0.854943
    12  C    0.019987  -2.897564  -0.217777  -6.473871  -0.854943  16.852379
    13  H    0.005664  -0.269178  -0.045693   0.147828  -0.193567   0.799199
    14  C    0.011332  -1.823203  -0.168200  -3.091434  -4.874988   4.998049
    15  H   -0.000063   0.023156   0.000495  -0.154109   0.051289   0.072960
    16  C   -0.003939   0.310712   0.040031   0.616384   2.033192  -2.289340
    17  C    0.001503  -0.237301  -0.035676  -0.833615  -1.914214  -0.255340
    18  H   -0.000258  -0.005734  -0.001244  -0.042864  -0.017231  -0.122975
    19  C   -0.000936   0.025707   0.016783   0.069844   0.486234  -0.618888
    20  H    0.000002   0.001824  -0.000022   0.005105   0.009616   0.033988
    21  C   -0.000092  -0.006558  -0.000788  -0.063048  -0.171854  -0.220557
    22  C    0.000026   0.023703  -0.003059  -0.122584  -0.283397   0.593968
    23  H   -0.000001   0.000505   0.000001  -0.001878   0.000152  -0.023432
    24  C    0.000197   0.000899  -0.003476  -0.008783   0.062949   0.016852
    25  H   -0.000006  -0.003625   0.000238   0.021718   0.033780   0.031970
    26  C   -0.000005  -0.000148   0.000285   0.001364   0.007488   0.010628
    27  H    0.000001  -0.000001  -0.000038  -0.000099  -0.000585  -0.000351
    28  H    0.000000  -0.000012   0.000015   0.000081   0.000453   0.000617
    29  H    0.000000   0.000002   0.000018  -0.000153  -0.000478  -0.000907
    30  C    0.000000   0.000059  -0.000008  -0.000809  -0.001696  -0.007941
    31  H    0.000000   0.000004   0.000002   0.000059   0.000126   0.000829
    32  H    0.000000   0.000008  -0.000003  -0.000052  -0.000224  -0.000158
    33  H    0.000000  -0.000026   0.000001   0.000062   0.000053   0.000063
    34  N    0.000000  -0.000027   0.000036   0.000366   0.002530   0.003120
    35  O    0.000249  -0.053699  -0.003054   0.059562  -0.024209  -0.017349
    36  H    0.000240   0.038260   0.001699  -0.136021   0.047468  -0.007600
    37  O    0.001035  -0.309813  -0.008444  -0.008576   0.781386  -0.289975
              13         14         15         16         17         18
     1  C    0.056672  -0.986407  -0.073291   0.067875  -0.014214   0.005143
     2  C   -0.052821  -0.123417  -0.000718   0.027561   0.034605   0.004962
     3  H    0.000163   0.003115  -0.000082  -0.000927   0.000395   0.000001
     4  C   -0.019675  -0.249904  -0.005047   0.042548  -0.025631  -0.000945
     5  H   -0.000786  -0.002998  -0.000043   0.000595  -0.000421  -0.000018
     6  C    0.026716   0.527992   0.011696  -0.227907   0.103816   0.000748
     7  H    0.005664   0.011332  -0.000063  -0.003939   0.001503  -0.000258
     8  C   -0.269178  -1.823203   0.023156   0.310712  -0.237301  -0.005734
     9  H   -0.045693  -0.168200   0.000495   0.040031  -0.035676  -0.001244
    10  C    0.147828  -3.091434  -0.154109   0.616384  -0.833615  -0.042864
    11  C   -0.193567  -4.874988   0.051289   2.033192  -1.914214  -0.017231
    12  C    0.799199   4.998049   0.072960  -2.289340  -0.255340  -0.122975
    13  H    0.887315   0.076469  -0.000803  -0.014696  -0.135828  -0.066110
    14  C    0.076469  11.615735   0.392644  -1.712339   1.784127  -0.008652
    15  H   -0.000803   0.392644   0.473097  -0.127421   0.054573   0.003949
    16  C   -0.014696  -1.712339  -0.127421  12.185597  -0.957116  -0.200560
    17  C   -0.135828   1.784127   0.054573  -0.957116  11.065153   0.486840
    18  H   -0.066110  -0.008652   0.003949  -0.200560   0.486840   0.594160
    19  C   -0.172250  -0.537846   0.006363  -0.818363   1.105734   0.086010
    20  H    0.013800   0.008661  -0.000608   0.163231  -0.007579  -0.045790
    21  C   -0.048710   0.042659   0.014232  -1.815056  -0.583711   0.190615
    22  C    0.054272   0.533361   0.022918  -2.477724  -1.258228  -0.029821
    23  H   -0.000888  -0.001303   0.002482  -0.007050  -0.014535   0.001629
    24  C    0.059950  -0.677273   0.025856   0.382290  -1.370460   0.020434
    25  H    0.003849   0.009251  -0.008229  -0.078871  -0.062559  -0.005053
    26  C   -0.001746  -0.012775   0.000039  -0.002620  -0.054025   0.004417
    27  H   -0.000152   0.000484   0.000026  -0.009142   0.001766   0.002118
    28  H   -0.000075  -0.001481  -0.000010   0.005623  -0.000974  -0.000241
    29  H   -0.000402   0.000272   0.000096  -0.010809  -0.006865   0.002620
    30  C    0.000056   0.019029  -0.000810  -0.142284  -0.045426   0.000469
    31  H   -0.000027  -0.000804  -0.000056   0.003357  -0.003963  -0.000079
    32  H    0.000046   0.002015  -0.000021  -0.006754   0.003329  -0.000263
    33  H    0.000074  -0.001027  -0.000137   0.006354  -0.004219  -0.000243
    34  N   -0.000840  -0.003852  -0.000732  -0.031928  -0.049748  -0.001000
    35  O    0.000015   0.035842  -0.000792   0.000959   0.000571   0.000103
    36  H    0.000825  -0.024306  -0.000489   0.002447  -0.007020  -0.000247
    37  O    0.011812   0.055277  -0.006666   0.022721  -0.007135   0.000277
              19         20         21         22         23         24
     1  C    0.031509  -0.000636   0.003638  -0.024616  -0.000530  -0.015249
     2  C    0.007426  -0.000206   0.001003  -0.003957  -0.000016  -0.015756
     3  H   -0.000007  -0.000001   0.000007  -0.000009  -0.000001  -0.000018
     4  C    0.001368   0.000137  -0.000452  -0.000019   0.000004   0.000462
     5  H    0.000026   0.000003  -0.000007   0.000003   0.000000   0.000031
     6  C   -0.026059  -0.000805   0.000537   0.008445  -0.000037   0.024296
     7  H   -0.000936   0.000002  -0.000092   0.000026  -0.000001   0.000197
     8  C    0.025707   0.001824  -0.006558   0.023703   0.000505   0.000899
     9  H    0.016783  -0.000022  -0.000788  -0.003059   0.000001  -0.003476
    10  C    0.069844   0.005105  -0.063048  -0.122584  -0.001878  -0.008783
    11  C    0.486234   0.009616  -0.171854  -0.283397   0.000152   0.062949
    12  C   -0.618888   0.033988  -0.220557   0.593968  -0.023432   0.016852
    13  H   -0.172250   0.013800  -0.048710   0.054272  -0.000888   0.059950
    14  C   -0.537846   0.008661   0.042659   0.533361  -0.001303  -0.677273
    15  H    0.006363  -0.000608   0.014232   0.022918   0.002482   0.025856
    16  C   -0.818363   0.163231  -1.815056  -2.477724  -0.007050   0.382290
    17  C    1.105734  -0.007579  -0.583711  -1.258228  -0.014535  -1.370460
    18  H    0.086010  -0.045790   0.190615  -0.029821   0.001629   0.020434
    19  C    9.011817   0.338066   0.481674  -1.782506  -0.042545  -1.119416
    20  H    0.338066   0.543021  -0.251231   0.008818   0.000685  -0.007802
    21  C    0.481674  -0.251231  12.082832  -0.161864  -0.152690  -2.705505
    22  C   -1.782506   0.008818  -0.161864   9.989000   0.493648   0.817083
    23  H   -0.042545   0.000685  -0.152690   0.493648   0.519829   0.093682
    24  C   -1.119416  -0.007802  -2.705505   0.817083   0.093682  10.447052
    25  H    0.014284   0.001467   0.045328   0.006780  -0.016033   0.282879
    26  C    0.102812   0.011615  -0.182859  -0.144034  -0.004048  -0.001737
    27  H    0.036518  -0.008996   0.009057  -0.019806  -0.000787  -0.011415
    28  H    0.017924   0.007623  -0.026251   0.008210   0.001915   0.013347
    29  H    0.036770  -0.016190  -0.008840  -0.012757  -0.000553  -0.006070
    30  C   -0.146779  -0.004657  -0.139637   0.217055   0.011684  -0.055750
    31  H    0.006327  -0.000529   0.001183   0.001474  -0.012704  -0.015381
    32  H    0.006356   0.001122   0.007832   0.020955   0.004451  -0.016785
    33  H   -0.021475  -0.000100  -0.028160   0.037019  -0.005204   0.009323
    34  N   -0.277580  -0.034894   0.264120  -0.241676  -0.031501   0.062510
    35  O    0.000085  -0.000001  -0.000035  -0.000189   0.000002  -0.000920
    36  H    0.000404   0.000023  -0.000456  -0.000394   0.000006   0.001953
    37  O   -0.002105   0.000069  -0.000841  -0.000872   0.000054  -0.008008
              25         26         27         28         29         30
     1  C    0.008396   0.000050   0.000006   0.000002   0.000000  -0.000022
     2  C    0.000422   0.000004   0.000000   0.000000   0.000001  -0.000002
     3  H    0.000008   0.000000   0.000000   0.000000   0.000000   0.000000
     4  C    0.000201   0.000005  -0.000001   0.000000  -0.000001   0.000000
     5  H    0.000002   0.000000   0.000000   0.000000   0.000000   0.000000
     6  C   -0.000863  -0.000172   0.000033  -0.000009   0.000019   0.000010
     7  H   -0.000006  -0.000005   0.000001   0.000000   0.000000   0.000000
     8  C   -0.003625  -0.000148  -0.000001  -0.000012   0.000002   0.000059
     9  H    0.000238   0.000285  -0.000038   0.000015   0.000018  -0.000008
    10  C    0.021718   0.001364  -0.000099   0.000081  -0.000153  -0.000809
    11  C    0.033780   0.007488  -0.000585   0.000453  -0.000478  -0.001696
    12  C    0.031970   0.010628  -0.000351   0.000617  -0.000907  -0.007941
    13  H    0.003849  -0.001746  -0.000152  -0.000075  -0.000402   0.000056
    14  C    0.009251  -0.012775   0.000484  -0.001481   0.000272   0.019029
    15  H   -0.008229   0.000039   0.000026  -0.000010   0.000096  -0.000810
    16  C   -0.078871  -0.002620  -0.009142   0.005623  -0.010809  -0.142284
    17  C   -0.062559  -0.054025   0.001766  -0.000974  -0.006865  -0.045426
    18  H   -0.005053   0.004417   0.002118  -0.000241   0.002620   0.000469
    19  C    0.014284   0.102812   0.036518   0.017924   0.036770  -0.146779
    20  H    0.001467   0.011615  -0.008996   0.007623  -0.016190  -0.004657
    21  C    0.045328  -0.182859   0.009057  -0.026251  -0.008840  -0.139637
    22  C    0.006780  -0.144034  -0.019806   0.008210  -0.012757   0.217055
    23  H   -0.016033  -0.004048  -0.000787   0.001915  -0.000553   0.011684
    24  C    0.282879  -0.001737  -0.011415   0.013347  -0.006070  -0.055750
    25  H    0.497022  -0.000088   0.000012  -0.000164  -0.000220   0.004347
    26  C   -0.000088   5.246984   0.397788   0.405564   0.437689  -0.125098
    27  H    0.000012   0.397788   0.576508  -0.027936  -0.061823   0.006592
    28  H   -0.000164   0.405564  -0.027936   0.514799  -0.019609  -0.015764
    29  H   -0.000220   0.437689  -0.061823  -0.019609   0.551975  -0.006748
    30  C    0.004347  -0.125098   0.006592  -0.015764  -0.006748   5.271393
    31  H    0.000630  -0.004602   0.001559  -0.004212   0.001607   0.432586
    32  H    0.000127  -0.014728   0.001543   0.013525  -0.004140   0.404539
    33  H    0.000654   0.005087  -0.004538   0.000661   0.001512   0.405672
    34  N   -0.001101   0.305392  -0.053229  -0.047001  -0.056557   0.310153
    35  O   -0.000011   0.000000   0.000000   0.000000   0.000000   0.000000
    36  H    0.000152   0.000003  -0.000001   0.000000  -0.000001  -0.000003
    37  O    0.000492  -0.000006   0.000000  -0.000001   0.000000   0.000005
              31         32         33         34         35         36
     1  C    0.000008  -0.000002   0.000006   0.000013   0.386516   0.019258
     2  C    0.000000   0.000000   0.000000   0.000000  -0.416369   0.063880
     3  H    0.000000   0.000000   0.000000   0.000000  -0.026916   0.002323
     4  C    0.000000   0.000000   0.000000   0.000001   0.013714  -0.001772
     5  H    0.000000   0.000000   0.000000   0.000000   0.000886  -0.000413
     6  C    0.000001   0.000002  -0.000003  -0.000006   0.000838   0.001237
     7  H    0.000000   0.000000   0.000000   0.000000   0.000249   0.000240
     8  C    0.000004   0.000008  -0.000026  -0.000027  -0.053699   0.038260
     9  H    0.000002  -0.000003   0.000001   0.000036  -0.003054   0.001699
    10  C    0.000059  -0.000052   0.000062   0.000366   0.059562  -0.136021
    11  C    0.000126  -0.000224   0.000053   0.002530  -0.024209   0.047468
    12  C    0.000829  -0.000158   0.000063   0.003120  -0.017349  -0.007600
    13  H   -0.000027   0.000046   0.000074  -0.000840   0.000015   0.000825
    14  C   -0.000804   0.002015  -0.001027  -0.003852   0.035842  -0.024306
    15  H   -0.000056  -0.000021  -0.000137  -0.000732  -0.000792  -0.000489
    16  C    0.003357  -0.006754   0.006354  -0.031928   0.000959   0.002447
    17  C   -0.003963   0.003329  -0.004219  -0.049748   0.000571  -0.007020
    18  H   -0.000079  -0.000263  -0.000243  -0.001000   0.000103  -0.000247
    19  C    0.006327   0.006356  -0.021475  -0.277580   0.000085   0.000404
    20  H   -0.000529   0.001122  -0.000100  -0.034894  -0.000001   0.000023
    21  C    0.001183   0.007832  -0.028160   0.264120  -0.000035  -0.000456
    22  C    0.001474   0.020955   0.037019  -0.241676  -0.000189  -0.000394
    23  H   -0.012704   0.004451  -0.005204  -0.031501   0.000002   0.000006
    24  C   -0.015381  -0.016785   0.009323   0.062510  -0.000920   0.001953
    25  H    0.000630   0.000127   0.000654  -0.001101  -0.000011   0.000152
    26  C   -0.004602  -0.014728   0.005087   0.305392   0.000000   0.000003
    27  H    0.001559   0.001543  -0.004538  -0.053229   0.000000  -0.000001
    28  H   -0.004212   0.013525   0.000661  -0.047001   0.000000   0.000000
    29  H    0.001607  -0.004140   0.001512  -0.056557   0.000000  -0.000001
    30  C    0.432586   0.404539   0.405672   0.310153   0.000000  -0.000003
    31  H    0.553598  -0.019462  -0.062319  -0.058617   0.000000   0.000000
    32  H   -0.019462   0.514150  -0.024963  -0.046780   0.000000   0.000000
    33  H   -0.062319  -0.024963   0.570228  -0.053000   0.000000   0.000000
    34  N   -0.058617  -0.046780  -0.053000   6.990740   0.000000   0.000002
    35  O    0.000000   0.000000   0.000000   0.000000   8.068107   0.257270
    36  H    0.000000   0.000000   0.000000   0.000002   0.257270   0.305853
    37  O   -0.000001   0.000000  -0.000001  -0.000002   0.008169   0.070091
              37
     1  C    0.013353
     2  C   -0.099059
     3  H    0.001318
     4  C   -0.027475
     5  H   -0.000307
     6  C    0.014693
     7  H    0.001035
     8  C   -0.309813
     9  H   -0.008444
    10  C   -0.008576
    11  C    0.781386
    12  C   -0.289975
    13  H    0.011812
    14  C    0.055277
    15  H   -0.006666
    16  C    0.022721
    17  C   -0.007135
    18  H    0.000277
    19  C   -0.002105
    20  H    0.000069
    21  C   -0.000841
    22  C   -0.000872
    23  H    0.000054
    24  C   -0.008008
    25  H    0.000492
    26  C   -0.000006
    27  H    0.000000
    28  H   -0.000001
    29  H    0.000000
    30  C    0.000005
    31  H   -0.000001
    32  H    0.000000
    33  H   -0.000001
    34  N   -0.000002
    35  O    0.008169
    36  H    0.070091
    37  O    8.078283
 Mulliken charges:
               1
     1  C    0.110461
     2  C   -0.429031
     3  H    0.235972
     4  C   -0.390941
     5  H    0.204655
     6  C   -0.431470
     7  H    0.221979
     8  C   -1.278288
     9  H    0.113583
    10  C    1.693086
    11  C   -0.282382
    12  C    0.292585
    13  H   -0.120478
    14  C    0.185898
    15  H    0.224259
    16  C    1.023370
    17  C   -0.756610
    18  H    0.144834
    19  C   -0.323287
    20  H    0.231173
    21  C   -0.575517
    22  C   -0.269228
    23  H    0.185007
    24  C   -0.282239
    25  H    0.212813
    26  C   -0.388525
    27  H    0.164887
    28  H    0.153381
    29  H    0.180544
    30  C   -0.390212
    31  H    0.179406
    32  H    0.154337
    33  H    0.168646
    34  N    0.051089
    35  O   -0.289341
    36  H    0.365329
    37  O   -0.289746
 Sum of Mulliken charges =   0.00000
 Mulliken charges with hydrogens summed into heavy atoms:
               1
     1  C    0.110461
     2  C   -0.193059
     4  C   -0.186286
     6  C   -0.209490
     8  C   -1.164705
    10  C    1.693086
    11  C   -0.282382
    12  C    0.172107
    14  C    0.410157
    16  C    1.023370
    17  C   -0.611776
    19  C   -0.092114
    21  C   -0.575517
    22  C   -0.084221
    24  C   -0.069425
    26  C    0.110286
    30  C    0.112177
    34  N    0.051089
    35  O    0.075988
    37  O   -0.289746
 Electronic spatial extent (au):  <R**2>=          10380.3235
 Charge=              0.0000 electrons
 Dipole moment (field-independent basis, Debye):
    X=             -6.8669    Y=              3.5307    Z=             -0.2428  Tot=              7.7252
 Quadrupole moment (field-independent basis, Debye-Ang):
   XX=            -89.3925   YY=           -112.4480   ZZ=           -125.2181
   XY=              9.7533   XZ=              0.0875   YZ=              0.8126
 Traceless Quadrupole moment (field-independent basis, Debye-Ang):
   XX=             19.6270   YY=             -3.4285   ZZ=            -16.1985
   XY=              9.7533   XZ=              0.0875   YZ=              0.8126
 Octapole moment (field-independent basis, Debye-Ang**2):
  XXX=           -242.7635  YYY=              9.1945  ZZZ=              1.1929  XYY=            -31.4675
  XXY=             75.2745  XXZ=             -4.3330  XZZ=             -3.3174  YZZ=             -7.3450
  YYZ=             -1.9637  XYZ=             -3.7771
 Hexadecapole moment (field-independent basis, Debye-Ang**3):
 XXXX=         -10626.0350 YYYY=          -1270.9249 ZZZZ=           -163.6590 XXXY=            173.6823
 XXXZ=             19.9620 YYYX=             19.4216 YYYZ=             -0.8189 ZZZX=              6.9253
 ZZZY=              0.2816 XXYY=          -2224.5784 XXZZ=          -2275.5388 YYZZ=           -264.4110
 XXYZ=             14.7910 YYXZ=            -12.3088 ZZXY=            -43.6384
 N-N= 1.361252479078D+03 E-N=-4.731999459304D+03  KE= 8.596673893995D+02
 ******************************Gaussian NBO Version 3.1******************************
             N A T U R A L   A T O M I C   O R B I T A L   A N D
          N A T U R A L   B O N D   O R B I T A L   A N A L Y S I S
 ******************************Gaussian NBO Version 3.1******************************
       /RESON  / : Allow strongly delocalized NBO set

 Analyzing the SCF density

 Job title: Geom Opt H bigbas                                               

 Storage needed:    942146 in NPA,   1252992 in NBO ( 268428241 available)
 Remove ICRem=  214 ICRemI=  215 L=0 PNAO number  214 atom   14 type  51 NPNAO=  559
   due to symmetric orthogonalization 2, value= 0.00D+00.
 Remove ICRem=  394 ICRemI=  374 L=0 PNAO number  394 atom   25 type  51 NPNAO=  558
   due to symmetric orthogonalization 2, value= 0.00D+00.
 Remove ICRem=  293 ICRemI=  294 L=0 PNAO number  293 atom   19 type  51 NPNAO=  557
   due to symmetric orthogonalization 2, value= 0.00D+00.
 Remove ICRem=  185 ICRemI=  186 L=0 PNAO number  185 atom   12 type  51 NPNAO=  556
   due to symmetric orthogonalization 2, value= 0.00D+00.
 Remove ICRem=  371 ICRemI=  372 L=0 PNAO number  371 atom   24 type  51 NPNAO=  555
   due to symmetric orthogonalization 2, value= 0.00D+00.

 Computed number of electrons  141.99997282 does not match expected value of   142.


 NATURAL POPULATIONS:  Natural atomic orbital occupancies 
                                                          
   NAO  Atom  No  lang   Type(AO)    Occupancy      Energy
 ----------------------------------------------------------
     1    C    1  S      Cor( 1S)     1.99885     -10.22190
     2    C    1  S      Val( 2S)     0.81915      -0.11143
     3    C    1  S      Ryd( 4S)     0.00142       1.22771
     4    C    1  S      Ryd( 3S)     0.00014       0.67135
     5    C    1  S      Ryd( 5S)     0.00003      22.63663
     6    C    1  px     Val( 2p)     1.07445      -0.06104
     7    C    1  px     Ryd( 4p)     0.00504       1.36955
     8    C    1  px     Ryd( 3p)     0.00082       0.56563
     9    C    1  px     Ryd( 5p)     0.00017       2.87304
    10    C    1  py     Val( 2p)     0.79046      -0.01826
    11    C    1  py     Ryd( 4p)     0.00986       1.21280
    12    C    1  py     Ryd( 3p)     0.00070       0.57429
    13    C    1  py     Ryd( 5p)     0.00014       3.00049
    14    C    1  pz     Val( 2p)     0.89845      -0.10415
    15    C    1  pz     Ryd( 4p)     0.00063       0.72507
    16    C    1  pz     Ryd( 3p)     0.00067       0.40663
    17    C    1  pz     Ryd( 5p)     0.00003       2.71573
    18    C    1  dxy    Ryd( 3d)     0.00172       2.70980
    19    C    1  dxz    Ryd( 3d)     0.00065       1.73560
    20    C    1  dyz    Ryd( 3d)     0.00296       1.70039
    21    C    1  dx2y2  Ryd( 3d)     0.00171       2.63498
    22    C    1  dz2    Ryd( 3d)     0.00069       2.16157

    23    C    2  S      Cor( 1S)     1.99909     -10.13473
    24    C    2  S      Val( 2S)     0.94942      -0.15612
    25    C    2  S      Ryd( 3S)     0.00172       0.95054
    26    C    2  S      Ryd( 4S)     0.00011       1.31062
    27    C    2  S      Ryd( 5S)     0.00001      22.62487
    28    C    2  px     Val( 2p)     1.15174      -0.06801
    29    C    2  px     Ryd( 4p)     0.00523       1.20463
    30    C    2  px     Ryd( 3p)     0.00018       0.53433
    31    C    2  px     Ryd( 5p)     0.00008       3.08302
    32    C    2  py     Val( 2p)     1.09523      -0.05809
    33    C    2  py     Ryd( 4p)     0.00579       1.06314
    34    C    2  py     Ryd( 3p)     0.00051       0.51063
    35    C    2  py     Ryd( 5p)     0.00011       3.13287
    36    C    2  pz     Val( 2p)     1.05091      -0.11263
    37    C    2  pz     Ryd( 4p)     0.00136       0.63038
    38    C    2  pz     Ryd( 3p)     0.00028       0.36255
    39    C    2  pz     Ryd( 5p)     0.00003       2.79413
    40    C    2  dxy    Ryd( 3d)     0.00080       2.66320
    41    C    2  dxz    Ryd( 3d)     0.00051       1.72556
    42    C    2  dyz    Ryd( 3d)     0.00045       1.78349
    43    C    2  dx2y2  Ryd( 3d)     0.00052       2.65277
    44    C    2  dz2    Ryd( 3d)     0.00041       2.17801

    45    H    3  S      Val( 1S)     0.77521       0.07861
    46    H    3  S      Ryd( 3S)     0.00088       0.85626
    47    H    3  S      Ryd( 4S)     0.00018       2.10447
    48    H    3  S      Ryd( 2S)     0.00013       0.28241
    49    H    3  px     Ryd( 2p)     0.00034       2.67181
    50    H    3  py     Ryd( 2p)     0.00017       2.24674
    51    H    3  pz     Ryd( 2p)     0.00013       1.70840

    52    C    4  S      Cor( 1S)     1.99918     -10.14930
    53    C    4  S      Val( 2S)     0.94956      -0.16169
    54    C    4  S      Ryd( 3S)     0.00134       0.96949
    55    C    4  S      Ryd( 4S)     0.00005       1.28310
    56    C    4  S      Ryd( 5S)     0.00001      22.63255
    57    C    4  px     Val( 2p)     1.13801      -0.06015
    58    C    4  px     Ryd( 4p)     0.00589       1.09663
    59    C    4  px     Ryd( 3p)     0.00022       0.49048
    60    C    4  px     Ryd( 5p)     0.00008       3.20921
    61    C    4  py     Val( 2p)     1.09797      -0.05500
    62    C    4  py     Ryd( 4p)     0.00499       1.00301
    63    C    4  py     Ryd( 3p)     0.00039       0.46531
    64    C    4  py     Ryd( 5p)     0.00013       3.16777
    65    C    4  pz     Val( 2p)     0.95413      -0.10500
    66    C    4  pz     Ryd( 4p)     0.00075       0.62550
    67    C    4  pz     Ryd( 3p)     0.00024       0.39183
    68    C    4  pz     Ryd( 5p)     0.00002       2.74014
    69    C    4  dxy    Ryd( 3d)     0.00079       2.58444
    70    C    4  dxz    Ryd( 3d)     0.00045       1.72775
    71    C    4  dyz    Ryd( 3d)     0.00065       1.76448
    72    C    4  dx2y2  Ryd( 3d)     0.00063       2.67987
    73    C    4  dz2    Ryd( 3d)     0.00039       2.15666

    74    H    5  S      Val( 1S)     0.79015       0.07137
    75    H    5  S      Ryd( 3S)     0.00059       0.81467
    76    H    5  S      Ryd( 4S)     0.00018       2.12767
    77    H    5  S      Ryd( 2S)     0.00002       0.22515
    78    H    5  px     Ryd( 2p)     0.00033       2.56200
    79    H    5  py     Ryd( 2p)     0.00021       2.30178
    80    H    5  pz     Ryd( 2p)     0.00015       1.68539

    81    C    6  S      Cor( 1S)     1.99917     -10.13672
    82    C    6  S      Val( 2S)     0.94157      -0.15225
    83    C    6  S      Ryd( 4S)     0.00150       1.00473
    84    C    6  S      Ryd( 3S)     0.00007       0.86289
    85    C    6  S      Ryd( 5S)     0.00001      22.97727
    86    C    6  px     Val( 2p)     1.06460      -0.05309
    87    C    6  px     Ryd( 4p)     0.00486       0.88826
    88    C    6  px     Ryd( 3p)     0.00036       0.45553
    89    C    6  px     Ryd( 5p)     0.00014       3.15279
    90    C    6  py     Val( 2p)     1.17606      -0.06569
    91    C    6  py     Ryd( 4p)     0.00641       1.21825
    92    C    6  py     Ryd( 3p)     0.00016       0.56057
    93    C    6  py     Ryd( 5p)     0.00005       3.11654
    94    C    6  pz     Val( 2p)     1.05600      -0.11247
    95    C    6  pz     Ryd( 4p)     0.00155       0.61457
    96    C    6  pz     Ryd( 3p)     0.00022       0.35293
    97    C    6  pz     Ryd( 5p)     0.00002       2.80367
    98    C    6  dxy    Ryd( 3d)     0.00063       2.70558
    99    C    6  dxz    Ryd( 3d)     0.00044       1.78166
   100    C    6  dyz    Ryd( 3d)     0.00042       1.72516
   101    C    6  dx2y2  Ryd( 3d)     0.00076       2.57757
   102    C    6  dz2    Ryd( 3d)     0.00038       2.16208

   103    H    7  S      Val( 1S)     0.78870       0.07334
   104    H    7  S      Ryd( 3S)     0.00068       0.80557
   105    H    7  S      Ryd( 4S)     0.00019       2.12171
   106    H    7  S      Ryd( 2S)     0.00002       0.24956
   107    H    7  px     Ryd( 2p)     0.00011       2.09357
   108    H    7  py     Ryd( 2p)     0.00043       2.79328
   109    H    7  pz     Ryd( 2p)     0.00020       1.70160

   110    C    8  S      Cor( 1S)     1.99914     -10.14955
   111    C    8  S      Val( 2S)     0.93423      -0.15426
   112    C    8  S      Ryd( 4S)     0.00138       0.98755
   113    C    8  S      Ryd( 3S)     0.00008       0.75459
   114    C    8  S      Ryd( 5S)     0.00001      23.12163
   115    C    8  px     Val( 2p)     1.15972      -0.06963
   116    C    8  px     Ryd( 4p)     0.00475       1.33823
   117    C    8  px     Ryd( 3p)     0.00022       0.60444
   118    C    8  px     Ryd( 5p)     0.00007       3.22818
   119    C    8  py     Val( 2p)     1.07280      -0.04956
   120    C    8  py     Ryd( 4p)     0.00377       1.03118
   121    C    8  py     Ryd( 3p)     0.00039       0.57956
   122    C    8  py     Ryd( 5p)     0.00015       3.25754
   123    C    8  pz     Val( 2p)     0.96506      -0.10916
   124    C    8  pz     Ryd( 4p)     0.00076       0.64021
   125    C    8  pz     Ryd( 3p)     0.00047       0.38813
   126    C    8  pz     Ryd( 5p)     0.00002       2.80638
   127    C    8  dxy    Ryd( 3d)     0.00064       2.66259
   128    C    8  dxz    Ryd( 3d)     0.00044       1.71906
   129    C    8  dyz    Ryd( 3d)     0.00063       1.78153
   130    C    8  dx2y2  Ryd( 3d)     0.00069       2.65701
   131    C    8  dz2    Ryd( 3d)     0.00038       2.16466

   132    H    9  S      Val( 1S)     0.79419       0.06538
   133    H    9  S      Ryd( 3S)     0.00073       1.15356
   134    H    9  S      Ryd( 4S)     0.00016       1.84087
   135    H    9  S      Ryd( 2S)     0.00010       0.33343
   136    H    9  px     Ryd( 2p)     0.00037       2.68102
   137    H    9  py     Ryd( 2p)     0.00024       2.24592
   138    H    9  pz     Ryd( 2p)     0.00019       1.70793

   139    C   10  S      Cor( 1S)     1.99892     -10.15197
   140    C   10  S      Val( 2S)     0.89386      -0.13470
   141    C   10  S      Ryd( 3S)     0.00093       0.99169
   142    C   10  S      Ryd( 4S)     0.00015       1.12097
   143    C   10  S      Ryd( 5S)     0.00002      23.03701
   144    C   10  px     Val( 2p)     1.09500      -0.07979
   145    C   10  px     Ryd( 4p)     0.00500       1.56251
   146    C   10  px     Ryd( 3p)     0.00031       0.68383
   147    C   10  px     Ryd( 5p)     0.00014       3.36218
   148    C   10  py     Val( 2p)     1.10431      -0.08367
   149    C   10  py     Ryd( 4p)     0.00536       1.45443
   150    C   10  py     Ryd( 3p)     0.00009       0.61237
   151    C   10  py     Ryd( 5p)     0.00011       3.39222
   152    C   10  pz     Val( 2p)     1.12194      -0.12616
   153    C   10  pz     Ryd( 4p)     0.00104       0.69780
   154    C   10  pz     Ryd( 3p)     0.00021       0.46642
   155    C   10  pz     Ryd( 5p)     0.00002       2.82488
   156    C   10  dxy    Ryd( 3d)     0.00080       2.66871
   157    C   10  dxz    Ryd( 3d)     0.00034       1.74361
   158    C   10  dyz    Ryd( 3d)     0.00048       1.76110
   159    C   10  dx2y2  Ryd( 3d)     0.00059       2.72661
   160    C   10  dz2    Ryd( 3d)     0.00042       2.23168

   161    C   11  S      Cor( 1S)     1.99920     -10.24887
   162    C   11  S      Val( 2S)     0.83227      -0.13245
   163    C   11  S      Ryd( 3S)     0.00385       1.07532
   164    C   11  S      Ryd( 4S)     0.00025       2.25124
   165    C   11  S      Ryd( 5S)     0.00004      21.37828
   166    C   11  px     Val( 2p)     1.03216      -0.05788
   167    C   11  px     Ryd( 4p)     0.00518       1.48674
   168    C   11  px     Ryd( 3p)     0.00046       0.79727
   169    C   11  px     Ryd( 5p)     0.00014       2.72367
   170    C   11  py     Val( 2p)     0.81614      -0.00723
   171    C   11  py     Ryd( 4p)     0.01626       1.18178
   172    C   11  py     Ryd( 3p)     0.00034       0.59324
   173    C   11  py     Ryd( 5p)     0.00023       2.88469
   174    C   11  pz     Val( 2p)     0.74444      -0.09338
   175    C   11  pz     Ryd( 4p)     0.00052       0.74660
   176    C   11  pz     Ryd( 3p)     0.00065       0.45022
   177    C   11  pz     Ryd( 5p)     0.00005       2.63420
   178    C   11  dxy    Ryd( 3d)     0.00334       2.59043
   179    C   11  dxz    Ryd( 3d)     0.00093       1.66790
   180    C   11  dyz    Ryd( 3d)     0.00336       1.71343
   181    C   11  dx2y2  Ryd( 3d)     0.00152       2.69897
   182    C   11  dz2    Ryd( 3d)     0.00053       2.14551

   183    C   12  S      Cor( 1S)     1.99888     -10.14390
   184    C   12  S      Val( 2S)     0.95221      -0.17394
   185    C   12  S      Ryd( 3S)     0.00150       0.94047
   186    C   12  S      Ryd( 4S)     0.00002      23.41424
   187    C   12  px     Val( 2p)     1.07980      -0.07435
   188    C   12  px     Ryd( 4p)     0.00438       1.04110
   189    C   12  px     Ryd( 3p)     0.00023       0.85777
   190    C   12  px     Ryd( 5p)     0.00020       3.34388
   191    C   12  py     Val( 2p)     1.17582      -0.07967
   192    C   12  py     Ryd( 4p)     0.00361       1.15347
   193    C   12  py     Ryd( 3p)     0.00023       0.85567
   194    C   12  py     Ryd( 5p)     0.00009       3.05180
   195    C   12  pz     Val( 2p)     1.09982      -0.12808
   196    C   12  pz     Ryd( 4p)     0.00186       0.59778
   197    C   12  pz     Ryd( 3p)     0.00049       0.51627
   198    C   12  pz     Ryd( 5p)     0.00004       2.78924
   199    C   12  dxy    Ryd( 3d)     0.00054       2.74214
   200    C   12  dxz    Ryd( 3d)     0.00027       1.75424
   201    C   12  dyz    Ryd( 3d)     0.00045       1.72395
   202    C   12  dx2y2  Ryd( 3d)     0.00079       2.62046
   203    C   12  dz2    Ryd( 3d)     0.00056       2.16476

   204    H   13  S      Val( 1S)     0.80030       0.05737
   205    H   13  S      Ryd( 3S)     0.00218       0.69486
   206    H   13  S      Ryd( 4S)     0.00032       2.33527
   207    H   13  S      Ryd( 2S)     0.00010       0.62759
   208    H   13  px     Ryd( 2p)     0.00018       2.11299
   209    H   13  py     Ryd( 2p)     0.00043       2.83102
   210    H   13  pz     Ryd( 2p)     0.00017       1.69877

   211    C   14  S      Cor( 1S)     1.99891     -10.16024
   212    C   14  S      Val( 2S)     0.93437      -0.16782
   213    C   14  S      Ryd( 3S)     0.00158       0.98105
   214    C   14  S      Ryd( 4S)     0.00002      23.24563
   215    C   14  px     Val( 2p)     1.05657      -0.04665
   216    C   14  px     Ryd( 4p)     0.00531       1.04786
   217    C   14  px     Ryd( 3p)     0.00029       0.89612
   218    C   14  px     Ryd( 5p)     0.00017       3.41451
   219    C   14  py     Val( 2p)     1.18024      -0.07676
   220    C   14  py     Ryd( 4p)     0.00641       1.14090
   221    C   14  py     Ryd( 3p)     0.00035       0.64852
   222    C   14  py     Ryd( 5p)     0.00010       3.19370
   223    C   14  pz     Val( 2p)     0.86790      -0.09882
   224    C   14  pz     Ryd( 4p)     0.00041       0.62980
   225    C   14  pz     Ryd( 3p)     0.00059       0.39286
   226    C   14  pz     Ryd( 5p)     0.00001       2.82447
   227    C   14  dxy    Ryd( 3d)     0.00060       2.68042
   228    C   14  dxz    Ryd( 3d)     0.00097       1.77387
   229    C   14  dyz    Ryd( 3d)     0.00035       1.68940
   230    C   14  dx2y2  Ryd( 3d)     0.00077       2.63007
   231    C   14  dz2    Ryd( 3d)     0.00059       2.12520

   232    H   15  S      Val( 1S)     0.77731       0.07755
   233    H   15  S      Ryd( 2S)     0.00273       0.63902
   234    H   15  S      Ryd( 4S)     0.00039       2.11917
   235    H   15  S      Ryd( 3S)     0.00012       0.76681
   236    H   15  px     Ryd( 2p)     0.00019       2.18047
   237    H   15  py     Ryd( 2p)     0.00044       2.79563
   238    H   15  pz     Ryd( 2p)     0.00011       1.69512

   239    C   16  S      Cor( 1S)     1.99906     -10.14587
   240    C   16  S      Val( 2S)     0.87294      -0.11628
   241    C   16  S      Ryd( 3S)     0.00112       0.80323
   242    C   16  S      Ryd( 4S)     0.00023       2.06337
   243    C   16  S      Ryd( 5S)     0.00001      22.15836
   244    C   16  px     Val( 2p)     1.09069      -0.08034
   245    C   16  px     Ryd( 3p)     0.00759       1.14480
   246    C   16  px     Ryd( 4p)     0.00035       1.28967
   247    C   16  px     Ryd( 5p)     0.00009       3.04727
   248    C   16  py     Val( 2p)     1.10530      -0.07869
   249    C   16  py     Ryd( 4p)     0.00390       1.25463
   250    C   16  py     Ryd( 3p)     0.00034       1.20733
   251    C   16  py     Ryd( 5p)     0.00013       2.89820
   252    C   16  pz     Val( 2p)     1.08184      -0.11195
   253    C   16  pz     Ryd( 3p)     0.00158       0.63475
   254    C   16  pz     Ryd( 4p)     0.00023       0.78287
   255    C   16  pz     Ryd( 5p)     0.00009       2.53658
   256    C   16  dxy    Ryd( 3d)     0.00069       2.75661
   257    C   16  dxz    Ryd( 3d)     0.00059       1.74659
   258    C   16  dyz    Ryd( 3d)     0.00048       1.77364
   259    C   16  dx2y2  Ryd( 3d)     0.00062       2.66580
   260    C   16  dz2    Ryd( 3d)     0.00033       2.18679

   261    C   17  S      Cor( 1S)     1.99913     -10.14909
   262    C   17  S      Val( 2S)     0.93117      -0.15335
   263    C   17  S      Ryd( 3S)     0.00211       0.86590
   264    C   17  S      Ryd( 4S)     0.00021       1.30967
   265    C   17  S      Ryd( 5S)     0.00001      22.68182
   266    C   17  px     Val( 2p)     1.12079      -0.06864
   267    C   17  px     Ryd( 4p)     0.00405       1.12812
   268    C   17  px     Ryd( 3p)     0.00029       0.73895
   269    C   17  px     Ryd( 5p)     0.00014       3.22778
   270    C   17  py     Val( 2p)     1.11792      -0.05580
   271    C   17  py     Ryd( 4p)     0.00493       1.16555
   272    C   17  py     Ryd( 3p)     0.00023       0.73303
   273    C   17  py     Ryd( 5p)     0.00012       3.10204
   274    C   17  pz     Val( 2p)     0.95672      -0.10815
   275    C   17  pz     Ryd( 4p)     0.00064       0.65378
   276    C   17  pz     Ryd( 3p)     0.00071       0.36623
   277    C   17  pz     Ryd( 5p)     0.00001       2.80616
   278    C   17  dxy    Ryd( 3d)     0.00079       2.60869
   279    C   17  dxz    Ryd( 3d)     0.00062       1.73440
   280    C   17  dyz    Ryd( 3d)     0.00048       1.75063
   281    C   17  dx2y2  Ryd( 3d)     0.00054       2.72105
   282    C   17  dz2    Ryd( 3d)     0.00042       2.17023

   283    H   18  S      Val( 1S)     0.79405       0.06113
   284    H   18  S      Ryd( 3S)     0.00113       0.55674
   285    H   18  S      Ryd( 4S)     0.00032       2.27987
   286    H   18  S      Ryd( 2S)     0.00013       0.51438
   287    H   18  px     Ryd( 2p)     0.00027       2.46839
   288    H   18  py     Ryd( 2p)     0.00029       2.49556
   289    H   18  pz     Ryd( 2p)     0.00017       1.69202

   290    C   19  S      Cor( 1S)     1.99894     -10.14757
   291    C   19  S      Val( 2S)     0.92090      -0.16400
   292    C   19  S      Ryd( 3S)     0.00065       0.87062
   293    C   19  S      Ryd( 4S)     0.00002      23.31366
   294    C   19  px     Val( 2p)     1.07906      -0.06565
   295    C   19  px     Ryd( 4p)     0.00294       1.13308
   296    C   19  px     Ryd( 3p)     0.00026       0.59466
   297    C   19  px     Ryd( 5p)     0.00012       3.21917
   298    C   19  py     Val( 2p)     1.16064      -0.07549
   299    C   19  py     Ryd( 4p)     0.00577       1.11494
   300    C   19  py     Ryd( 3p)     0.00017       0.64549
   301    C   19  py     Ryd( 5p)     0.00007       3.18337
   302    C   19  pz     Val( 2p)     1.08085      -0.12672
   303    C   19  pz     Ryd( 4p)     0.00143       0.61373
   304    C   19  pz     Ryd( 3p)     0.00045       0.38914
   305    C   19  pz     Ryd( 5p)     0.00001       2.82919
   306    C   19  dxy    Ryd( 3d)     0.00073       2.69958
   307    C   19  dxz    Ryd( 3d)     0.00050       1.76456
   308    C   19  dyz    Ryd( 3d)     0.00042       1.72049
   309    C   19  dx2y2  Ryd( 3d)     0.00063       2.64511
   310    C   19  dz2    Ryd( 3d)     0.00051       2.14097

   311    H   20  S      Val( 1S)     0.78624       0.06484
   312    H   20  S      Ryd( 3S)     0.00089       0.83331
   313    H   20  S      Ryd( 4S)     0.00019       2.04961
   314    H   20  S      Ryd( 2S)     0.00003       0.41237
   315    H   20  px     Ryd( 2p)     0.00013       2.18801
   316    H   20  py     Ryd( 2p)     0.00046       2.77235
   317    H   20  pz     Ryd( 2p)     0.00023       1.69868

   318    C   21  S      Cor( 1S)     1.99906     -10.19918
   319    C   21  S      Val( 2S)     0.82022      -0.10252
   320    C   21  S      Ryd( 4S)     0.00108       0.88202
   321    C   21  S      Ryd( 3S)     0.00019       0.65690
   322    C   21  S      Ryd( 5S)     0.00002      23.21232
   323    C   21  px     Val( 2p)     0.90681      -0.02471
   324    C   21  px     Ryd( 4p)     0.00528       1.14655
   325    C   21  px     Ryd( 3p)     0.00021       0.71582
   326    C   21  px     Ryd( 5p)     0.00013       3.09184
   327    C   21  py     Val( 2p)     1.09032      -0.08115
   328    C   21  py     Ryd( 4p)     0.00519       1.29229
   329    C   21  py     Ryd( 3p)     0.00015       0.80882
   330    C   21  py     Ryd( 5p)     0.00016       3.05760
   331    C   21  pz     Val( 2p)     0.94463      -0.11207
   332    C   21  pz     Ryd( 4p)     0.00058       0.68427
   333    C   21  pz     Ryd( 3p)     0.00027       0.60819
   334    C   21  pz     Ryd( 5p)     0.00001       2.65172
   335    C   21  dxy    Ryd( 3d)     0.00088       2.69071
   336    C   21  dxz    Ryd( 3d)     0.00215       1.73651
   337    C   21  dyz    Ryd( 3d)     0.00072       1.73946
   338    C   21  dx2y2  Ryd( 3d)     0.00107       2.62399
   339    C   21  dz2    Ryd( 3d)     0.00048       2.15796

   340    C   22  S      Cor( 1S)     1.99915     -10.14231
   341    C   22  S      Val( 2S)     0.93502      -0.15934
   342    C   22  S      Ryd( 3S)     0.00230       0.79183
   343    C   22  S      Ryd( 4S)     0.00012       1.49498
   344    C   22  S      Ryd( 5S)     0.00002      22.61790
   345    C   22  px     Val( 2p)     1.13545      -0.07935
   346    C   22  px     Ryd( 4p)     0.00343       1.05712
[...]
   313. RY*(  14) C  19                  0.00001     1.81012   
   314. RY*(  15) C  19                  0.00000     2.88913   
   315. RY*(  16) C  19                  0.00000    19.57534   
   316. RY*(   1) H  20                  0.00091     0.87362   
   317. RY*(   2) H  20                  0.00023     1.69031   
   318. RY*(   3) H  20                  0.00020     2.17091   
   319. RY*(   4) H  20                  0.00010     2.13913   
   320. RY*(   5) H  20                  0.00005     2.64154   
   321. RY*(   6) H  20                  0.00003     0.43663   
   322. RY*(   1) C  21                  0.00554     1.54591   
   323. RY*(   2) C  21                  0.00481     1.27662   
   324. RY*(   3) C  21                  0.00277     1.61425   
   325. RY*(   4) C  21                  0.00077     1.60629   
   326. RY*(   5) C  21                  0.00074     0.93653   
   327. RY*(   6) C  21                  0.00043     0.78042   
   328. RY*(   7) C  21                  0.00026     2.28170   
   329. RY*(   8) C  21                  0.00018     1.98208   
   330. RY*(   9) C  21                  0.00016     2.10738   
   331. RY*(  10) C  21                  0.00013     2.73990   
   332. RY*(  11) C  21                  0.00008     3.08967   
   333. RY*(  12) C  21                  0.00007     3.00557   
   334. RY*(  13) C  21                  0.00004     1.21411   
   335. RY*(  14) C  21                  0.00001     1.83626   
   336. RY*(  15) C  21                  0.00000     0.70438   
   337. RY*(  16) C  21                  0.00001     2.64729   
   338. RY*(  17) C  21                  0.00001    20.37628   
   339. RY*(   1) C  22                  0.00494     1.14355   
   340. RY*(   2) C  22                  0.00149     1.58764   
   341. RY*(   3) C  22                  0.00135     0.52844   
   342. RY*(   4) C  22                  0.00060     1.27072   
   343. RY*(   5) C  22                  0.00058     1.16757   
   344. RY*(   6) C  22                  0.00023     2.43530   
   345. RY*(   7) C  22                  0.00011     2.03936   
   346. RY*(   8) C  22                  0.00009     2.11151   
   347. RY*(   9) C  22                  0.00007     1.52852   
   348. RY*(  10) C  22                  0.00005     1.10856   
   349. RY*(  11) C  22                  0.00004     2.73657   
   350. RY*(  12) C  22                  0.00003     1.93917   
   351. RY*(  13) C  22                  0.00002     1.30222   
   352. RY*(  14) C  22                  0.00001     2.44982   
   353. RY*(  15) C  22                  0.00000    20.35907   
   354. RY*(  16) C  22                  0.00000     2.83858   
   355. RY*(  17) C  22                  0.00001     3.09574   
   356. RY*(   1) H  23                  0.00073     0.92457   
   357. RY*(   2) H  23                  0.00023     1.67236   
   358. RY*(   3) H  23                  0.00019     1.78903   
   359. RY*(   4) H  23                  0.00015     1.60331   
   360. RY*(   5) H  23                  0.00008     1.58828   
   361. RY*(   6) H  23                  0.00003     2.37378   
   362. RY*(   1) C  24                  0.00597     1.01079   
   363. RY*(   2) C  24                  0.00223     1.29425   
   364. RY*(   3) C  24                  0.00101     1.71949   
   365. RY*(   4) C  24                  0.00069     0.96656   
   366. RY*(   5) C  24                  0.00059     0.62096   
   367. RY*(   6) C  24                  0.00020     1.24118   
   368. RY*(   7) C  24                  0.00014     4.05968   
   369. RY*(   8) C  24                  0.00008     2.10537   
   370. RY*(   9) C  24                  0.00006     1.06760   
   371. RY*(  10) C  24                  0.00006     3.63794   
   372. RY*(  11) C  24                  0.00004     1.89199   
   373. RY*(  12) C  24                  0.00002     2.30044   
   374. RY*(  13) C  24                  0.00002     3.39893   
   375. RY*(  14) C  24                  0.00001     0.96780   
   376. RY*(  15) C  24                  0.00000    19.32001   
   377. RY*(  16) C  24                  0.00000     2.86536   
   378. RY*(   1) H  25                  0.00042     1.72787   
   379. RY*(   2) H  25                  0.00017     1.89253   
   380. RY*(   3) H  25                  0.00016     1.68553   
   381. RY*(   4) H  25                  0.00011     2.13638   
   382. RY*(   5) H  25                  0.00004     2.01693   
   383. RY*(   1) C  26                  0.00271     0.91425   
   384. RY*(   2) C  26                  0.00213     1.20676   
   385. RY*(   3) C  26                  0.00089     1.04687   
   386. RY*(   4) C  26                  0.00035     1.07866   
   387. RY*(   5) C  26                  0.00019     1.61806   
   388. RY*(   6) C  26                  0.00015     1.61899   
   389. RY*(   7) C  26                  0.00006     1.34475   
   390. RY*(   8) C  26                  0.00004     0.70890   
   391. RY*(   9) C  26                  0.00003     1.64899   
   392. RY*(  10) C  26                  0.00004     1.36558   
   393. RY*(  11) C  26                  0.00001     2.05975   
   394. RY*(  12) C  26                  0.00000     2.98014   
   395. RY*(  13) C  26                  0.00000     2.55108   
   396. RY*(  14) C  26                  0.00000     2.05253   
   397. RY*(  15) C  26                  0.00000     1.93338   
   398. RY*(  16) C  26                  0.00001     1.54288   
   399. RY*(  17) C  26                  0.00000    22.86283   
   400. RY*(   1) H  27                  0.00112     0.56111   
   401. RY*(   2) H  27                  0.00023     2.10271   
   402. RY*(   3) H  27                  0.00012     2.07800   
   403. RY*(   4) H  27                  0.00010     1.84290   
   404. RY*(   5) H  27                  0.00008     0.56743   
   405. RY*(   6) H  27                  0.00003     2.51793   
   406. RY*(   1) H  28                  0.00045     0.62305   
   407. RY*(   2) H  28                  0.00017     2.06637   
   408. RY*(   3) H  28                  0.00018     1.79319   
   409. RY*(   4) H  28                  0.00009     2.02718   
   410. RY*(   5) H  28                  0.00007     0.43937   
   411. RY*(   6) H  28                  0.00002     2.57007   
   412. RY*(   1) H  29                  0.00135     0.54500   
   413. RY*(   2) H  29                  0.00022     2.13401   
   414. RY*(   3) H  29                  0.00013     1.50621   
   415. RY*(   4) H  29                  0.00010     2.00993   
   416. RY*(   5) H  29                  0.00008     1.15089   
   417. RY*(   6) H  29                  0.00002     2.37801   
   418. RY*(   1) C  30                  0.00263     0.91810   
   419. RY*(   2) C  30                  0.00212     1.19721   
   420. RY*(   3) C  30                  0.00084     1.04187   
   421. RY*(   4) C  30                  0.00035     1.07024   
   422. RY*(   5) C  30                  0.00020     1.57097   
   423. RY*(   6) C  30                  0.00015     1.51089   
   424. RY*(   7) C  30                  0.00006     1.59625   
   425. RY*(   8) C  30                  0.00003     0.74187   
   426. RY*(   9) C  30                  0.00003     1.63708   
   427. RY*(  10) C  30                  0.00004     1.89686   
   428. RY*(  11) C  30                  0.00000     1.82667   
   429. RY*(  12) C  30                  0.00000     2.98515   
   430. RY*(  13) C  30                  0.00001     1.29030   
   431. RY*(  14) C  30                  0.00000     2.33287   
   432. RY*(  15) C  30                  0.00000     1.88039   
   433. RY*(  16) C  30                  0.00001     2.05589   
   434. RY*(  17) C  30                  0.00000    22.96709   
   435. RY*(   1) H  31                  0.00138     0.54915   
   436. RY*(   2) H  31                  0.00022     2.19788   
   437. RY*(   3) H  31                  0.00011     1.89685   
   438. RY*(   4) H  31                  0.00011     1.84037   
   439. RY*(   5) H  31                  0.00007     0.98919   
   440. RY*(   6) H  31                  0.00002     2.24127   
   441. RY*(   1) H  32                  0.00046     0.60427   
   442. RY*(   2) H  32                  0.00018     2.08622   
   443. RY*(   3) H  32                  0.00018     1.80516   
   444. RY*(   4) H  32                  0.00009     2.02487   
   445. RY*(   5) H  32                  0.00006     0.26296   
   446. RY*(   6) H  32                  0.00003     2.75343   
   447. RY*(   1) H  33                  0.00112     0.56702   
   448. RY*(   2) H  33                  0.00024     2.13904   
   449. RY*(   3) H  33                  0.00012     2.11713   
   450. RY*(   4) H  33                  0.00010     1.82084   
   451. RY*(   5) H  33                  0.00006     0.79383   
   452. RY*(   6) H  33                  0.00003     2.23288   
   453. RY*(   1) N  34                  0.00597     0.82402   
   454. RY*(   2) N  34                  0.00210     1.46997   
   455. RY*(   3) N  34                  0.00132     0.99710   
   456. RY*(   4) N  34                  0.00086     1.53848   
   457. RY*(   5) N  34                  0.00069     1.01911   
   458. RY*(   6) N  34                  0.00043     1.70944   
   459. RY*(   7) N  34                  0.00029     2.28669   
   460. RY*(   8) N  34                  0.00027     2.29737   
   461. RY*(   9) N  34                  0.00013     2.10021   
   462. RY*(  10) N  34                  0.00009     1.19206   
   463. RY*(  11) N  34                  0.00007     2.37968   
   464. RY*(  12) N  34                  0.00002     4.48961   
   465. RY*(  13) N  34                  0.00002     3.18844   
   466. RY*(  14) N  34                  0.00000     4.12741   
   467. RY*(  15) N  34                  0.00001     0.52048   
   468. RY*(  16) N  34                  0.00000     3.98239   
   469. RY*(  17) N  34                  0.00000    34.77045   
   470. RY*(   1) O  35                  0.00259     0.67084   
   471. RY*(   2) O  35                  0.00218     0.90887   
   472. RY*(   3) O  35                  0.00064     0.74719   
   473. RY*(   4) O  35                  0.00023     1.65377   
   474. RY*(   5) O  35                  0.00011     1.46327   
   475. RY*(   6) O  35                  0.00008     1.15878   
   476. RY*(   7) O  35                  0.00007     2.18750   
   477. RY*(   8) O  35                  0.00002     2.00983   
   478. RY*(   9) O  35                  0.00002     4.99641   
   479. RY*(  10) O  35                  0.00000     5.18215   
   480. RY*(  11) O  35                  0.00001     2.98616   
   481. RY*(  12) O  35                  0.00000     5.05539   
   482. RY*(  13) O  35                  0.00001     2.55680   
   483. RY*(  14) O  35                  0.00000     2.92500   
   484. RY*(  15) O  35                  0.00000     3.03684   
   485. RY*(  16) O  35                  0.00000    49.64510   
   486. RY*(  17) O  35                  0.00000     3.18342   
   493. RY*(   1) O  37                  0.00274     0.88280   
   494. RY*(   2) O  37                  0.00211     0.62427   
   495. RY*(   3) O  37                  0.00116     1.51651   
   496. RY*(   4) O  37                  0.00068     0.52754   
   497. RY*(   5) O  37                  0.00020     1.26004   
   498. RY*(   6) O  37                  0.00010     1.00070   
   499. RY*(   7) O  37                  0.00005     1.31650   
   500. RY*(   8) O  37                  0.00006     1.02080   
   501. RY*(   9) O  37                  0.00002     5.34683   
   502. RY*(  10) O  37                  0.00001     0.02201   
   503. RY*(  11) O  37                  0.00001     0.64031   
   504. RY*(  12) O  37                  0.00001     0.97317   
   505. RY*(  13) O  37                  0.00000    49.29097   
   506. RY*(  14) O  37                  0.00000     4.91607   
   507. RY*(  15) O  37                  0.00000     0.13739   
   508. RY*(  16) O  37                  0.00000     5.11795   
   509. RY*(  17) O  37                  0.00001     0.15262   
   510. BD*(   1) C   1 - C   2          0.02410     0.64555   
   511. BD*(   1) C   1 - C  10          0.03453     0.63022   
   512. BD*(   2) C   1 - C  10          0.42391     0.07048  527(v),521(v),516(v),470(v)
                                                    75(g),162(v),186(g),78(g)
   513. BD*(   1) C   1 - O  35          0.01893     0.49175   
   514. BD*(   1) C   2 - H   3          0.01226     0.53029   
   515. BD*(   1) C   2 - C   4          0.01373     0.69322   
   516. BD*(   2) C   2 - C   4          0.29592     0.09267  521(v),512(v),92(g),117(g)
   517. BD*(   1) C   4 - H   5          0.01305     0.53215   
   518. BD*(   1) C   4 - C   6          0.01681     0.66328   
   519. BD*(   1) C   6 - H   7          0.01343     0.53189   
   520. BD*(   1) C   6 - C   8          0.01528     0.69133   
   521. BD*(   2) C   6 - C   8          0.30639     0.09004  516(v),512(v),138(g),162(g)
                                                    161(g)
   522. BD*(   1) C   8 - H   9          0.01371     0.53174   
   523. BD*(   1) C   8 - C  10          0.02122     0.64990   
   524. BD*(   1) C  10 - C  11          0.05192     0.54028   
   525. BD*(   1) C  11 - C  12          0.04953     0.53337   
   526. BD*(   1) C  11 - O  37          0.01148     0.65498   
   527. BD*(   2) C  11 - O  37          0.25909     0.06734  512(v),530(v),494(g),201(g)
                                                    207(g),70(r)
   528. BD*(   1) C  12 - H  13          0.01800     0.52044   
   529. BD*(   1) C  12 - C  14          0.01420     0.72222   
   530. BD*(   2) C  12 - C  14          0.12215     0.11566  535(v),527(v),243(g),218(g)
   531. BD*(   1) C  14 - H  15          0.01753     0.53002   
   532. BD*(   1) C  14 - C  16          0.02410     0.57204   
   533. BD*(   1) C  16 - C  17          0.02748     0.65616   
   534. BD*(   1) C  16 - C  24          0.02331     0.63767   
   535. BD*(   2) C  16 - C  24          0.40608     0.08057  538(v),542(v),530(v),366(g)
                                                    262(g),264(g),558(r),555(r)
   536. BD*(   1) C  17 - H  18          0.01374     0.52697   
   537. BD*(   1) C  17 - C  19          0.01340     0.67507   
   538. BD*(   2) C  17 - C  19          0.30145     0.08595  535(v),542(v),281(g),302(g)
   539. BD*(   1) C  19 - H  20          0.01295     0.52536   
   540. BD*(   1) C  19 - C  21          0.02414     0.61930   
   541. BD*(   1) C  21 - C  22          0.02323     0.63505   
   542. BD*(   2) C  21 - C  22          0.42273     0.06769  535(v),538(v),341(g),327(g)
                                                    527(r),302(v),348(g),366(v)
                                                    557(r)
   543. BD*(   1) C  21 - N  34          0.03134     0.55560   
   544. BD*(   1) C  22 - H  23          0.01278     0.58257   
   545. BD*(   1) C  22 - C  24          0.01355     0.75210   
   546. BD*(   1) C  24 - H  25          0.01346     0.50834   
   547. BD*(   1) C  26 - H  27          0.01582     0.46683   
   548. BD*(   1) C  26 - H  28          0.00423     0.47853   
   549. BD*(   1) C  26 - H  29          0.01946     0.46265   
   550. BD*(   1) C  26 - N  34          0.01503     3.81607   
   551. BD*(   1) C  30 - H  31          0.01943     3.39054   
   552. BD*(   1) C  30 - H  32          0.00420     3.68208   
   553. BD*(   1) C  30 - H  33          0.01588     4.49195   
   554. BD*(   1) C  30 - N  34          0.01501     3.77424   
       -------------------------------
              Total Lewis  137.99570  ( 97.5201%)
        Valence non-Lewis    3.23997  (  2.2896%)
        Rydberg non-Lewis    0.26927  (  0.1903%)
       -------------------------------
            Total unit  1  141.50493  (100.0000%)
           Charge unit  1   -0.50493

 Molecular unit  2  (H)
    70. LP*(   1) H  36                  0.48915     0.19027  487(g),474(r),509(r),489(g)
                                                    496(r),482(r),473(r),526(r)
                                                    486(r),199(r),511(r),510(r)
                                                    73(r),476(r),475(r),513(r)
                                                    182(r),471(r),90(r),74(r)
                                                    480(r),525(r),485(r),495(r)
                                                    527(r),185(r),504(r),76(r)
                                                    500(r),493(r),85(r),494(r)
                                                    515(r),553(r),477(r),503(r)
                                                    83(r),497(r),202(r),478(r)
                                                    472(r)
   487. RY*(   1) H  36                  0.00340     1.85573   
   488. RY*(   2) H  36                  0.00107     1.65423   
   489. RY*(   3) H  36                  0.00092     1.99594   
   490. RY*(   4) H  36                  0.00037     1.79567   
   491. RY*(   5) H  36                  0.00012     1.36033   
   492. RY*(   6) H  36                  0.00002     1.61861   
       -------------------------------
              Total Lewis    0.00000  (  0.0000%)
        Valence non-Lewis    0.48915  ( 98.8096%)
        Rydberg non-Lewis    0.00589  (  1.1904%)
       -------------------------------
            Total unit  2    0.49504  (100.0000%)
           Charge unit  2    0.50496
 1\1\GINC-DN46\SP\RwB97XD\6-311++G(d,p)\C17H17N1O2\BTX008\05-Feb-2016\0
 \\#wb97xd 6-311++g** geom=allcheck pop=nbo\\Geom Opt H bigbas\\0,1\C,0
 ,4.9110746209,3.4778287464,4.5379813095\C,0,3.6878733885,2.8288108035,
 4.3285361263\H,0,2.9033431364,2.9741227521,5.0611613876\C,0,3.49966328
 86,2.0388100379,3.2141200657\H,0,2.5442022549,1.5476684143,3.064208700
 7\C,0,4.5229886766,1.8727016995,2.2770227222\H,0,4.3687566926,1.261700
 5263,1.3962170174\C,0,5.7346701922,2.4986766935,2.4846985101\H,0,6.515
 643503,2.3695290319,1.746612444\C,0,5.9681405789,3.3054791749,3.611278
 7896\C,0,7.2630490562,3.9796216925,3.8598763815\C,0,8.4197489011,3.701
 9977185,2.9952995066\H,0,8.3344132228,2.9423903265,2.230666352\C,0,9.5
 697246318,4.3734207534,3.1748610292\H,0,9.5728128069,5.1193161083,3.96
 72099236\C,0,10.8130449311,4.2236795615,2.4362222354\C,0,10.995741821,
 3.2984151636,1.3998406132\H,0,10.181719879,2.6438055781,1.1085073825\C
 ,0,12.1931559268,3.188251127,0.7252635968\H,0,12.2743877263,2.45643845
 82,-0.0668444578\C,0,13.2947045254,4.0084452892,1.0577624266\C,0,13.11
 28745501,4.9457635378,2.0941431647\H,0,13.9185255178,5.6058254163,2.38
 50000276\C,0,11.9039342855,5.0386129039,2.7574123723\H,0,11.7993308077
 ,5.7712815064,3.5516948027\C,0,14.6129071042,2.9986386175,-0.733411224
 5\H,0,14.4038072127,1.9626556276,-0.4467825222\H,0,15.6329618564,3.034
 9495309,-1.1125623482\H,0,13.9349249198,3.2745381325,-1.5515471941\C,0
 ,15.5692356752,4.8155273853,0.6931339503\H,0,15.2914905093,5.855708071
 4,0.478665231\H,0,16.4342477146,4.5621277069,0.0823931141\H,0,15.87367
 58732,4.7501781935,1.7431262044\N,0,14.4931499226,3.8926545987,0.39916
 37325\O,0,5.0228553289,4.2409523206,5.6250581686\H,0,5.9201619916,4.64
 50111457,5.5958829903\O,0,7.3727069695,4.7663956479,4.8080574678\\Vers
 ion=ES64L-G09RevD.01\State=1-A\HF=-863.1701801\RMSD=6.124e-09\Dipole=2
 .2426041,-0.570738,-1.970402\Quadrupole=14.2189584,-6.1708344,-8.04812
 39,8.2573072,-2.686668,2.6961573\PG=C01 [X(C17H17N1O2)]\\@


 Age does not diminish the extreme disappointment of
 having a scoop of ice cream fall from the cone.
 -- Jim Fiebig
 Job cpu time:       0 days  1 hours 15 minutes 16.2 seconds.
 File lengths (MBytes):  RWF=    163 Int=      0 D2E=      0 Chk=     24 Scr=      1
 Normal termination of Gaussian 09 at Fri Feb  5 18:05:08 2016.
