 Entering Gaussian System, Link 0=g09
 Input=H_hf321.com
 Output=H_hf321.out
 Initial command:
 /share/apps/gaussian/g09_D01/g09/l1.exe "/tmp/3953318.1.chemistry.q/Gau-25266.inp" -scrdir="/tmp/3953318.1.chemistry.q/"
 Entering Link 1 = /share/apps/gaussian/g09_D01/g09/l1.exe PID=     25269.
  
 Copyright (c) 1988,1990,1992,1993,1995,1998,2003,2009,2013,
            Gaussian, Inc.  All Rights Reserved.
  
 This is part of the Gaussian(R) 09 program.  It is based on
 the Gaussian(R) 03 system (copyright 2003, Gaussian, Inc.),
 the Gaussian(R) 98 system (copyright 1998, Gaussian, Inc.),
 the Gaussian(R) 94 system (copyright 1995, Gaussian, Inc.),
 the Gaussian 92(TM) system (copyright 1992, Gaussian, Inc.),
 the Gaussian 90(TM) system (copyright 1990, Gaussian, Inc.),
 the Gaussian 88(TM) system (copyright 1988, Gaussian, Inc.),
 the Gaussian 86(TM) system (copyright 1986, Carnegie Mellon
 University), and the Gaussian 82(TM) system (copyright 1983,
 Carnegie Mellon University). Gaussian is a federally registered
 trademark of Gaussian, Inc.
  
 This software contains proprietary and confidential information,
 including trade secrets, belonging to Gaussian, Inc.
  
 This software is provided under written license and may be
 used, copied, transmitted, or stored only in accord with that
 written license.
  
 The following legend is applicable only to US Government
 contracts under FAR:
  
                    RESTRICTED RIGHTS LEGEND
  
 Use, reproduction and disclosure by the US Government is
 subject to restrictions as set forth in subparagraphs (a)
 and (c) of the Commercial Computer Software - Restricted
 Rights clause in FAR 52.227-19.
  
 Gaussian, Inc.
 340 Quinnipiac St., Bldg. 40, Wallingford CT 06492
  
  
 ---------------------------------------------------------------
 Warning -- This program may not be used in any manner that
 competes with the business of Gaussian, Inc. or will provide
 assistance to any competitor of Gaussian, Inc.  The licensee
 of this program is prohibited from giving any competitor of
 Gaussian, Inc. access to this program.  By using this program,
 the user acknowledges that Gaussian, Inc. is engaged in the
 business of creating and licensing software in the field of
 computational chemistry and represents and warrants to the
 licensee that it is not a competitor of Gaussian, Inc. and that
 it will not use this program in any manner prohibited above.
 ---------------------------------------------------------------
  

 Cite this work as:
 Gaussian 09, Revision D.01,
 M. J. Frisch, G. W. Trucks, H. B. Schlegel, G. E. Scuseria, 
 M. A. Robb, J. R. Cheeseman, G. Scalmani, V. Barone, B. Mennucci, 
 G. A. Petersson, H. Nakatsuji, M. Caricato, X. Li, H. P. Hratchian, 
 A. F. Izmaylov, J. Bloino, G. Zheng, J. L. Sonnenberg, M. Hada, 
 M. Ehara, K. Toyota, R. Fukuda, J. Hasegawa, M. Ishida, T. Nakajima, 
 Y. Honda, O. Kitao, H. Nakai, T. Vreven, J. A. Montgomery, Jr., 
 J. E. Peralta, F. Ogliaro, M. Bearpark, J. J. Heyd, E. Brothers, 
 K. N. Kudin, V. N. Staroverov, T. Keith, R. Kobayashi, J. Normand, 
 K. Raghavachari, A. Rendell, J. C. Burant, S. S. Iyengar, J. Tomasi, 
 M. Cossi, N. Rega, J. M. Millam, M. Klene, J. E. Knox, J. B. Cross, 
 V. Bakken, C. Adamo, J. Jaramillo, R. Gomperts, R. E. Stratmann, 
 O. Yazyev, A. J. Austin, R. Cammi, C. Pomelli, J. W. Ochterski, 
 R. L. Martin, K. Morokuma, V. G. Zakrzewski, G. A. Voth, 
 P. Salvador, J. J. Dannenberg, S. Dapprich, A. D. Daniels, 
 O. Farkas, J. B. Foresman, J. V. Ortiz, J. Cioslowski, 
 and D. J. Fox, Gaussian, Inc., Wallingford CT, 2013.
 
 ******************************************
 Gaussian 09:  ES64L-G09RevD.01 24-Apr-2013
                23-Feb-2017 
 ******************************************
 %chk=H_631
 %mem=6GB
 %nproc=2
 Will use up to    2 processors via shared memory.
 ----------------------
 #p HF/3-21G* pop=(ESP)
 ----------------------
 1/38=1/1;
 2/12=2,17=6,18=5,40=1/2;
 3/5=5,7=1,11=9,16=1,25=1,30=1/1,2,3;
 4//1;
 5/5=2,38=5/2;
 6/7=2,8=2,9=2,10=2,15=8,28=1/1,2;
 99/5=1,9=1/99;
 Leave Link    1 at Thu Feb 23 16:26:42 2017, MaxMem=   805306368 cpu:         0.0
 (Enter /share/apps/gaussian/g09_D01/g09/l101.exe)
 -----------------------------
 central molecules ESP Charges
 -----------------------------
 Symbolic Z-matrix:
 Charge =  0 Multiplicity = 1
 C                    -4.33833   1.08067  -0.51012 
 C                    -5.43568   0.29136  -0.88946 
 C                    -3.01975   0.53403  -0.52935 
 O                    -4.55591   2.35343  -0.12496 
 C                    -5.24654  -1.0172   -1.30861 
 H                    -6.42927   0.73536  -0.82852 
 C                    -2.87136  -0.79863  -0.96872 
 C                    -1.8927    1.37624  -0.08199 
 H                    -3.59626   2.68791   0.13169 
 C                    -3.95832  -1.56686  -1.35711 
 H                    -6.1045   -1.62621  -1.59789 
 H                    -1.88198  -1.25074  -1.01667 
 C                    -0.54484   0.87266  -0.08375 
 O                    -2.14766   2.5724    0.31228 
 H                    -3.80985  -2.5902   -1.70059 
 C                     0.50461   1.61043   0.39966 
 H                    -0.36594  -0.1217   -0.48779 
 C                     1.88922   1.25537   0.40152 
 H                     0.26302   2.59535   0.81371 
 C                     2.4057    0.08067  -0.19983 
 C                     2.83124   2.13888   0.98127 
 C                     3.75343  -0.1951   -0.21989 
 H                     1.72752  -0.63187  -0.671 
 C                     4.18417   1.87784   0.98084 
 H                     2.46598   3.06039   1.43693 
 C                     4.69469   0.69442   0.3796 
 H                     4.09168  -1.11029  -0.69879 
 H                     4.86209   2.59781   1.43246 
 N                     6.02445   0.41948   0.37838 
 C                     6.51853  -0.7896   -0.26182 
 C                     6.9646    1.31447   1.03855 
 H                     6.23192  -0.81919  -1.32448 
 H                     7.60997  -0.81602  -0.19375 
 H                     6.11782  -1.68999   0.22708 
 H                     6.69203   1.45874   2.09504 
 H                     7.96726   0.87845   0.99192 
 H                     6.98684   2.30111   0.55048 
 
 NAtoms=     37 NQM=       37 NQMF=       0 NMMI=      0 NMMIF=      0
                NMic=       0 NMicF=      0.
                    Isotopes and Nuclear Properties:
 (Nuclear quadrupole moments (NQMom) in fm**2, nuclear magnetic moments (NMagM)
  in nuclear magnetons)

  Atom         1           2           3           4           5           6           7           8           9          10
 IAtWgt=          12          12          12          16          12           1          12          12           1          12
 AtmWgt=  12.0000000  12.0000000  12.0000000  15.9949146  12.0000000   1.0078250  12.0000000  12.0000000   1.0078250  12.0000000
 NucSpn=           0           0           0           0           0           1           0           0           1           0
 AtZEff=   0.0000000   0.0000000   0.0000000   0.0000000   0.0000000   0.0000000   0.0000000   0.0000000   0.0000000   0.0000000
 NQMom=    0.0000000   0.0000000   0.0000000   0.0000000   0.0000000   0.0000000   0.0000000   0.0000000   0.0000000   0.0000000
 NMagM=    0.0000000   0.0000000   0.0000000   0.0000000   0.0000000   2.7928460   0.0000000   0.0000000   2.7928460   0.0000000
 AtZNuc=   6.0000000   6.0000000   6.0000000   8.0000000   6.0000000   1.0000000   6.0000000   6.0000000   1.0000000   6.0000000

  Atom        11          12          13          14          15          16          17          18          19          20
 IAtWgt=           1           1          12          16           1          12           1          12           1          12
 AtmWgt=   1.0078250   1.0078250  12.0000000  15.9949146   1.0078250  12.0000000   1.0078250  12.0000000   1.0078250  12.0000000
 NucSpn=           1           1           0           0           1           0           1           0           1           0
 AtZEff=   0.0000000   0.0000000   0.0000000   0.0000000   0.0000000   0.0000000   0.0000000   0.0000000   0.0000000   0.0000000
 NQMom=    0.0000000   0.0000000   0.0000000   0.0000000   0.0000000   0.0000000   0.0000000   0.0000000   0.0000000   0.0000000
 NMagM=    2.7928460   2.7928460   0.0000000   0.0000000   2.7928460   0.0000000   2.7928460   0.0000000   2.7928460   0.0000000
 AtZNuc=   1.0000000   1.0000000   6.0000000   8.0000000   1.0000000   6.0000000   1.0000000   6.0000000   1.0000000   6.0000000

  Atom        21          22          23          24          25          26          27          28          29          30
 IAtWgt=          12          12           1          12           1          12           1           1          14          12
 AtmWgt=  12.0000000  12.0000000   1.0078250  12.0000000   1.0078250  12.0000000   1.0078250   1.0078250  14.0030740  12.0000000
 NucSpn=           0           0           1           0           1           0           1           1           2           0
 AtZEff=   0.0000000   0.0000000   0.0000000   0.0000000   0.0000000   0.0000000   0.0000000   0.0000000   0.0000000   0.0000000
 NQMom=    0.0000000   0.0000000   0.0000000   0.0000000   0.0000000   0.0000000   0.0000000   0.0000000   2.0440000   0.0000000
 NMagM=    0.0000000   0.0000000   2.7928460   0.0000000   2.7928460   0.0000000   2.7928460   2.7928460   0.4037610   0.0000000
 AtZNuc=   6.0000000   6.0000000   1.0000000   6.0000000   1.0000000   6.0000000   1.0000000   1.0000000   7.0000000   6.0000000

  Atom        31          32          33          34          35          36          37
 IAtWgt=          12           1           1           1           1           1           1
 AtmWgt=  12.0000000   1.0078250   1.0078250   1.0078250   1.0078250   1.0078250   1.0078250
 NucSpn=           0           1           1           1           1           1           1
 AtZEff=   0.0000000   0.0000000   0.0000000   0.0000000   0.0000000   0.0000000   0.0000000
 NQMom=    0.0000000   0.0000000   0.0000000   0.0000000   0.0000000   0.0000000   0.0000000
 NMagM=    0.0000000   2.7928460   2.7928460   2.7928460   2.7928460   2.7928460   2.7928460
 AtZNuc=   6.0000000   1.0000000   1.0000000   1.0000000   1.0000000   1.0000000   1.0000000
 Leave Link  101 at Thu Feb 23 16:26:42 2017, MaxMem=   805306368 cpu:         0.1
 (Enter /share/apps/gaussian/g09_D01/g09/l202.exe)
                          Input orientation:                          
 ---------------------------------------------------------------------
 Center     Atomic      Atomic             Coordinates (Angstroms)
 Number     Number       Type             X           Y           Z
 ---------------------------------------------------------------------
      1          6           0       -4.338330    1.080669   -0.510124
      2          6           0       -5.435680    0.291355   -0.889463
      3          6           0       -3.019754    0.534034   -0.529353
      4          8           0       -4.555908    2.353425   -0.124962
      5          6           0       -5.246537   -1.017199   -1.308614
      6          1           0       -6.429273    0.735364   -0.828519
      7          6           0       -2.871355   -0.798632   -0.968723
      8          6           0       -1.892701    1.376238   -0.081987
      9          1           0       -3.596258    2.687909    0.131693
     10          6           0       -3.958323   -1.566856   -1.357110
     11          1           0       -6.104499   -1.626206   -1.597885
     12          1           0       -1.881983   -1.250744   -1.016673
     13          6           0       -0.544837    0.872660   -0.083751
     14          8           0       -2.147662    2.572400    0.312278
     15          1           0       -3.809852   -2.590199   -1.700594
     16          6           0        0.504605    1.610432    0.399658
     17          1           0       -0.365942   -0.121701   -0.487791
     18          6           0        1.889223    1.255371    0.401519
     19          1           0        0.263017    2.595352    0.813707
     20          6           0        2.405701    0.080669   -0.199834
     21          6           0        2.831242    2.138877    0.981269
     22          6           0        3.753431   -0.195101   -0.219886
     23          1           0        1.727518   -0.631873   -0.670999
     24          6           0        4.184173    1.877835    0.980835
     25          1           0        2.465984    3.060387    1.436929
     26          6           0        4.694686    0.694415    0.379597
     27          1           0        4.091677   -1.110288   -0.698790
     28          1           0        4.862092    2.597806    1.432463
     29          7           0        6.024445    0.419483    0.378383
     30          6           0        6.518534   -0.789599   -0.261819
     31          6           0        6.964599    1.314465    1.038545
     32          1           0        6.231918   -0.819189   -1.324482
     33          1           0        7.609969   -0.816019   -0.193754
     34          1           0        6.117821   -1.689990    0.227075
     35          1           0        6.692034    1.458744    2.095039
     36          1           0        7.967262    0.878454    0.991923
     37          1           0        6.986844    2.301109    0.550483
 ---------------------------------------------------------------------
                    Distance matrix (angstroms):
                    1          2          3          4          5
     1  C    0.000000
     2  C    1.403956   0.000000
     3  C    1.427523   2.454643   0.000000
     4  O    1.347441   2.368669   2.415261   0.000000
     5  C    2.421462   1.387003   2.823497   3.638558   0.000000
     6  H    2.143048   1.089993   3.428535   2.573443   2.168140
     7  C    2.427777   2.787493   1.411052   3.672208   2.409313
     8  C    2.500353   3.792320   1.476378   2.837149   4.298996
     9  H    1.883035   3.188997   2.325622   1.048179   4.304153
    10  C    2.805562   2.419551   2.445370   4.152577   1.401417
    11  H    3.410242   2.150865   3.914594   4.517200   1.091176
    12  H    3.424284   3.875953   2.171966   4.575484   3.385262
    13  C    3.823042   4.990735   2.537409   4.275869   5.213237
    14  O    2.775001   4.178326   2.371460   2.457392   5.011540
    15  H    3.895097   3.406553   3.428832   5.242007   2.166112
    16  C    4.956044   6.220031   3.800368   5.141601   6.549677
    17  H    4.150429   5.102372   2.733941   4.879929   5.029500
    18  C    6.296351   7.500011   5.048258   6.559163   7.681680
    19  H    5.021871   6.378428   4.102369   4.915452   6.921702
    20  C    6.824825   7.874467   5.454327   7.323594   7.809703
    21  C    7.399109   8.674963   6.252332   7.472601   8.969665
    22  C    8.196854   9.226307   6.819343   8.691899   9.102780
    23  H    6.305013   7.225751   4.890398   6.977937   7.013735
    24  C    8.688584   9.927563   7.482181   8.822584  10.127245
    25  H    7.349081   8.689990   6.351539   7.228158   9.145911
    26  C    9.084942  10.217499   7.769459   9.411715  10.227785
    27  H    8.712113   9.631796   7.301024   9.333130   9.358568
    28  H    9.524868  10.805330   8.380416   9.549032  11.079988
    29  N   10.421791  11.530755   9.090360  10.767421  11.486734
    30  C   11.019576  12.019386   9.633406  11.512628  11.813741
    31  C   11.410926  12.590905  10.136798  11.625630  12.651389
    32  H   10.770459  11.728401   9.383863  11.308471  11.480174
    33  H   12.102040  13.111035  10.720368  12.572139  12.906321
    34  H   10.842099  11.775218   9.434709  11.419353  11.487368
    35  H   11.340139  12.543982  10.102542  11.499785  12.658777
    36  H   12.398574  13.547072  11.097181  12.659098  13.545865
    37  H   11.440014  12.666162  10.218640  11.562616  12.811051
                    6          7          8          9         10
     6  H    0.000000
     7  C    3.877058   0.000000
     8  C    4.642038   2.544430   0.000000
     9  H    3.572172   3.727247   2.160613   0.000000
    10  C    3.418365   1.386547   3.815041   4.522240   0.000000
    11  H    2.504878   3.396166   5.389978   5.281506   2.160455
    12  H    4.965669   1.088835   2.788331   4.446400   2.127678
    13  C    5.932969   2.998179   1.438865   3.557066   4.384583
    14  O    4.796698   3.678118   1.285011   1.464371   4.816512
    15  H    4.322181   2.150843   4.693397   5.591183   1.089613
    16  C    7.095973   4.367283   2.456401   4.248510   5.753183
    17  H    6.133077   2.639437   2.177037   4.325807   3.968550
    18  C    8.425009   5.362797   3.814621   5.675868   6.726926
    19  H    7.137451   4.951815   2.633558   3.920168   6.313171
    20  C    8.881477   5.404783   4.490952   6.552185   6.674910
    21  C    9.539514   6.704554   4.901813   6.506610   8.080759
    22  C   10.243225   6.694236   5.862331   7.902739   7.914931
    23  H    8.272085   4.611516   4.181558   6.325177   5.802907
    24  C   10.827014   7.793890   6.189474   7.868441   9.145060
    25  H    9.469086   7.011874   4.913410   6.212339   8.395818
    26  C   11.189445   7.828929   6.638645   8.530840   9.110657
    27  H   10.682399   6.975228   6.509688   8.615123   8.089768
    28  H   11.665147   8.781098   7.029439   8.558260  10.145238
    29  N   12.516049   9.079304   7.988024   9.887595  10.325364
    30  C   13.049612   9.416465   8.687466  10.703127  10.562591
    31  C   13.535771  10.258669   8.928111  10.688331  11.547788
    32  H   12.765907   9.110245   8.507240  10.536281  10.217685
    33  H   14.138954  10.509949   9.752908  11.745763  11.650860
    34  H   12.822878   9.112065   8.582875  10.655441  10.200661
    35  H   13.462510  10.292754   8.856857  10.545830  11.597486
    36  H   14.511881  11.141471   9.930757  11.735805  12.398269
    37  H   13.577386  10.445117   8.949957  10.598446  11.764215
                   11         12         13         14         15
    11  H    0.000000
    12  H    4.278834   0.000000
    13  C    6.280667   2.677153   0.000000
    14  O    6.077300   4.056245   2.369600   0.000000
    15  H    2.491031   2.445111   5.026519   5.785063   0.000000
    16  C    7.625369   3.985991   1.370883   2.822683   6.377374
    17  H    6.035469   1.962864   1.088120   3.327584   4.407368
    18  C    8.729301   4.744879   2.511295   4.247231   7.189349
    19  H    8.011404   4.769043   2.103741   2.462383   7.056905
    20  C    8.791557   4.563345   3.057188   5.215755   6.929568
    21  C   10.033711   6.139690   3.759718   5.042319   8.582580
    22  C   10.056129   5.788535   4.430999   6.539508   8.070455
    23  H    7.949107   3.678449   2.787845   5.123594   5.963017
    24  C   11.170715   7.111701   4.950480   6.404805   9.542422
    25  H   10.228755   6.596274   4.020405   4.773751   9.008845
    26  C   11.221324   6.998985   5.262990   7.095709   9.351099
    27  H   10.248734   5.983761   5.080120   7.315313   8.101105
    28  H   12.136367   8.141999   5.874514   7.098740  10.579889
    29  N   12.458000   8.200454   6.601091   8.451198  10.492556
    30  C   12.721083   8.446961   7.258514   9.313194  10.582428
    31  C   13.652825   9.437491   7.605680   9.227305  11.782957
    32  H   12.365808   8.131198   7.094094   9.186905  10.203680
    33  H   13.809946   9.537470   8.328541  10.341606  11.654638
    34  H   12.357979   8.107818   7.145264   9.300185  10.153077
    35  H   13.671352   9.515138   7.580430   9.086181  11.878147
    36  H   14.525663  10.274997   8.579798  10.278281  12.569074
    37  H   13.835554   9.681308   7.692135   9.141638  12.064862
                   16         17         18         19         20
    16  C    0.000000
    17  H    2.132065   0.000000
    18  C    1.429419   2.788004   0.000000
    19  H    1.095385   3.077639   2.147090   0.000000
    20  C    2.512714   2.793900   1.417145   3.455719   0.000000
    21  C    2.455762   4.182145   1.415660   2.613853   2.410873
    22  C    3.768110   4.128728   2.442393   4.586713   1.375801
    23  H    2.769432   2.162502   2.176725   3.842408   1.090708
    24  C    3.734768   5.182524   2.447420   3.989765   2.790474
    25  H    2.650530   4.674402   2.159354   2.336178   3.400198
    26  C    4.289087   5.198881   2.861079   4.841663   2.439647
    27  H    4.634220   4.570798   3.414356   5.538777   2.123641
    28  H    4.585770   6.198018   3.420954   4.640512   3.877400
    29  N    5.646897   6.471490   4.218922   6.173975   3.680277
    30  C    6.508843   6.920488   5.104159   7.193479   4.204355
    31  C    6.498253   7.624245   5.115539   6.826597   4.882559
    32  H    6.455837   6.687174   5.112913   7.201300   4.088339
    33  H    7.531666   8.011472   6.113259   8.162728   5.280956
    34  H    6.513890   6.708930   5.156222   7.279219   4.134891
    35  H    6.417289   7.680094   5.096701   6.653266   5.053532
    36  H    7.521823   8.522450   6.118268   7.895245   5.743493
    37  H    6.520675   7.810985   5.205910   6.735408   5.145892
                   21         22         23         24         25
    21  C    0.000000
    22  C    2.782204   0.000000
    23  H    3.409582   2.120989   0.000000
    24  C    1.377884   2.433995   3.881024   0.000000
    25  H    1.090972   3.873081   4.315261   2.135094   0.000000
    26  C    2.433291   1.427088   3.415681   1.422179   3.418024
    27  H    3.868897   1.086889   2.412240   3.429078   4.959708
    28  H    2.130386   3.429244   4.967991   1.087152   2.440355
    29  N    3.676457   2.427580   4.546442   2.424116   4.556044
    30  C    4.870047   2.828601   4.811044   3.756146   5.842200
    31  C    4.215160   3.764842   5.842755   2.837514   4.841951
    32  H    5.062730   2.784334   4.555409   4.096545   6.071142
    33  H    5.740063   3.906291   5.904651   4.513600   6.644263
    34  H    5.102022   2.832809   4.604444   4.127532   6.112752
    35  H    4.075387   4.090167   6.055416   2.776050   4.567041
    36  H    5.288429   4.514130   6.631802   3.912882   5.934890
    37  H    4.181019   4.156861   6.144503   2.866937   4.669097
                   26         27         28         29         30
    26  C    0.000000
    27  H    2.187119   0.000000
    28  H    2.181616   4.345773   0.000000
    29  N    1.357884   2.689999   2.684630   0.000000
    30  C    2.437239   2.486648   4.133873   1.454600   0.000000
    31  C    2.443600   4.141430   2.494528   1.456261   2.513365
    32  H    2.749175   2.248746   4.599242   2.115916   1.101034
    33  H    3.333019   3.566516   4.674357   2.089902   1.093874
    34  H    2.781000   2.301856   4.627635   2.116953   1.100133
    35  H    2.741594   4.600789   2.255029   2.114863   3.261890
    36  H    3.334452   4.672661   3.576636   2.088450   2.540292
    37  H    2.804399   4.645461   2.319588   2.120459   3.229803
                   31         32         33         34         35
    31  C    0.000000
    32  H    3.266986   0.000000
    33  H    2.544411   1.782577   0.000000
    34  H    3.225254   1.782875   1.779727   0.000000
    35  H    1.100585   4.134466   3.354955   3.705879   0.000000
    36  H    1.094355   3.355465   2.098744   3.256122   1.783202
    37  H    1.100984   3.717750   3.264760   4.097397   1.783857
                   36         37
    36  H    0.000000
    37  H    1.783266   0.000000
 Stoichiometry    C17H17NO2
 Framework group  C1[X(C17H17NO2)]
 Deg. of freedom   105
 Full point group                 C1      NOp   1
 Largest Abelian subgroup         C1      NOp   1
 Largest concise Abelian subgroup C1      NOp   1
                         Standard orientation:                         
 ---------------------------------------------------------------------
 Center     Atomic      Atomic             Coordinates (Angstroms)
 Number     Number       Type             X           Y           Z
 ---------------------------------------------------------------------
      1          6           0       -4.770302   -0.486699    0.071042
      2          6           0       -5.921501    0.313882    0.001018
      3          6           0       -3.475300    0.110594    0.007546
      4          8           0       -4.913430   -1.820993    0.192579
      5          6           0       -5.811379    1.692343   -0.106194
      6          1           0       -6.891169   -0.183624    0.018843
      7          6           0       -3.408530    1.516357   -0.094626
      8          6           0       -2.285460   -0.762901    0.038870
      9          1           0       -3.923229   -2.164657    0.183928
     10          6           0       -4.550030    2.301682   -0.147111
     11          1           0       -6.710406    2.307989   -0.164477
     12          1           0       -2.441699    2.016048   -0.127927
     13          6           0       -0.958392   -0.210046   -0.020910
     14          8           0       -2.466290   -2.032631    0.118489
     15          1           0       -4.465207    3.385768   -0.216535
     16          6           0        0.156375   -1.006352   -0.071038
     17          1           0       -0.849863    0.872648   -0.020557
     18          6           0        1.523575   -0.589219   -0.072591
     19          1           0       -0.013424   -2.088321   -0.090503
     20          6           0        1.940135    0.757592    0.071903
     21          6           0        2.546184   -1.563819   -0.164882
     22          6           0        3.269851    1.107727    0.117617
     23          1           0        1.195947    1.550342    0.157788
     24          6           0        3.883690   -1.234449   -0.130869
     25          1           0        2.257128   -2.611536   -0.259520
     26          6           0        4.294154    0.119953    0.009526
     27          1           0        3.529490    2.156790    0.233297
     28          1           0        4.625478   -2.026540   -0.196000
     29          7           0        5.608262    0.460890    0.036522
     30          6           0        5.997278    1.852828    0.200948
     31          6           0        6.638732   -0.555332   -0.125102
     32          1           0        5.587020    2.270032    1.133635
     33          1           0        7.088309    1.922655    0.237511
     34          1           0        5.637485    2.467442   -0.637558
     35          1           0        6.495585   -1.112484   -1.063386
     36          1           0        7.619263   -0.070103   -0.152015
     37          1           0        6.624741   -1.274537    0.708393
 ---------------------------------------------------------------------
 Rotational constants (GHZ):      1.0904252      0.1072611      0.0979094
 Leave Link  202 at Thu Feb 23 16:26:42 2017, MaxMem=   805306368 cpu:         0.0
 (Enter /share/apps/gaussian/g09_D01/g09/l301.exe)
 Standard basis: 3-21G* (6D, 7F)
 Ernie: Thresh=  0.10000D-02 Tol=  0.10000D-05 Strict=F.
 There are   214 symmetry adapted cartesian basis functions of A   symmetry.
 There are   214 symmetry adapted basis functions of A   symmetry.
   214 basis functions,   351 primitive gaussians,   214 cartesian basis functions
    71 alpha electrons       71 beta electrons
       nuclear repulsion energy      1358.4109953304 Hartrees.
 IExCor=    0 DFT=F Ex=HF Corr=None ExCW=0 ScaHFX=  1.000000
 ScaDFX=  1.000000  1.000000  1.000000  1.000000 ScalE2=  1.000000  1.000000
 IRadAn=      0 IRanWt=     -1 IRanGd=            0 ICorTp=0 IEmpDi=  4
 NAtoms=   37 NActive=   37 NUniq=   37 SFac= 1.00D+00 NAtFMM=   60 NAOKFM=F Big=F
 Integral buffers will be    131072 words long.
 Raffenetti 1 integral format.
 Two-electron integral symmetry is turned on.
 Leave Link  301 at Thu Feb 23 16:26:42 2017, MaxMem=   805306368 cpu:         0.1
 (Enter /share/apps/gaussian/g09_D01/g09/l302.exe)
 NPDir=0 NMtPBC=     1 NCelOv=     1 NCel=       1 NClECP=     1 NCelD=      1
         NCelK=      1 NCelE2=     1 NClLst=     1 CellRange=     0.0.
 One-electron integrals computed using PRISM.
 NBasis=   214 RedAO= T EigKep=  1.43D-03  NBF=   214
 NBsUse=   214 1.00D-06 EigRej= -1.00D+00 NBFU=   214
 Leave Link  302 at Thu Feb 23 16:26:42 2017, MaxMem=   805306368 cpu:         0.3
 (Enter /share/apps/gaussian/g09_D01/g09/l303.exe)
 DipDrv:  MaxL=1.
 Leave Link  303 at Thu Feb 23 16:26:42 2017, MaxMem=   805306368 cpu:         0.1
 (Enter /share/apps/gaussian/g09_D01/g09/l401.exe)
 ExpMin= 1.83D-01 ExpMax= 3.22D+02 ExpMxC= 3.22D+02 IAcc=1 IRadAn=         1 AccDes= 0.00D+00
 Harris functional with IExCor=  205 and IRadAn=       1 diagonalized for initial guess.
 HarFok:  IExCor=  205 AccDes= 0.00D+00 IRadAn=         1 IDoV= 1 UseB2=F ITyADJ=14
 ICtDFT=  3500011 ScaDFX=  1.000000  1.000000  1.000000  1.000000
 FoFCou: FMM=F IPFlag=           0 FMFlag=      100000 FMFlg1=           0
         NFxFlg=           0 DoJE=T BraDBF=F KetDBF=T FulRan=T
         wScrn=  0.000000 ICntrl=     500 IOpCl=  0 I1Cent=   200000004 NGrid=           0
         NMat0=    1 NMatS0=      1 NMatT0=    0 NMatD0=    1 NMtDS0=    0 NMtDT0=    0
 Petite list used in FoFCou.
 Harris En= -854.135684199103    
 JPrj=0 DoOrth=F DoCkMO=F.
 Leave Link  401 at Thu Feb 23 16:26:43 2017, MaxMem=   805306368 cpu:         1.4
 (Enter /share/apps/gaussian/g09_D01/g09/l502.exe)
 Closed shell SCF:
 Using DIIS extrapolation, IDIIS=  1040.
 Integral symmetry usage will be decided dynamically.
 Keep R1 ints in memory in canonical form, NReq=269754483.
 IVT=      158888 IEndB=      158888 NGot=   805306368 MDV=   540520966
 LenX=   540520966 LenY=   540474729
 Requested convergence on RMS density matrix=1.00D-08 within 128 cycles.
 Requested convergence on MAX density matrix=1.00D-06.
 Requested convergence on             energy=1.00D-06.
 No special actions if energy rises.
 FoFCou: FMM=F IPFlag=           0 FMFlag=           0 FMFlg1=           0
         NFxFlg=           0 DoJE=F BraDBF=F KetDBF=F FulRan=T
         wScrn=  0.000000 ICntrl=     600 IOpCl=  0 I1Cent=           0 NGrid=           0
         NMat0=    1 NMatS0=  23005 NMatT0=    0 NMatD0=    1 NMtDS0=    0 NMtDT0=    0
 Symmetry not used in FoFCou.

 Cycle   1  Pass 1  IDiag  1:
 E= -852.444963341300    
 DIIS: error= 6.35D-02 at cycle   1 NSaved=   1.
 NSaved= 1 IEnMin= 1 EnMin= -852.444963341300     IErMin= 1 ErrMin= 6.35D-02
 ErrMax= 6.35D-02  0.00D+00 EMaxC= 1.00D-01 BMatC= 7.96D-01 BMatP= 7.96D-01
 IDIUse=3 WtCom= 3.65D-01 WtEn= 6.35D-01
 Coeff-Com:  0.100D+01
 Coeff-En:   0.100D+01
 Coeff:      0.100D+01
 Gap=     0.334 Goal=   None    Shift=    0.000
 GapD=    0.334 DampG=1.000 DampE=0.500 DampFc=0.5000 IDamp=-1.
 Damping current iteration by 5.00D-01
 RMSDP=5.06D-03 MaxDP=9.54D-02              OVMax= 1.50D-01

 Cycle   2  Pass 1  IDiag  1:
 E= -852.750666840049     Delta-E=       -0.305703498749 Rises=F Damp=T
 DIIS: error= 2.48D-02 at cycle   2 NSaved=   2.
 NSaved= 2 IEnMin= 2 EnMin= -852.750666840049     IErMin= 2 ErrMin= 2.48D-02
 ErrMax= 2.48D-02  0.00D+00 EMaxC= 1.00D-01 BMatC= 1.68D-01 BMatP= 7.96D-01
 IDIUse=3 WtCom= 7.52D-01 WtEn= 2.48D-01
 Coeff-Com: -0.672D+00 0.167D+01
 Coeff-En:   0.000D+00 0.100D+01
 Coeff:     -0.505D+00 0.151D+01
 Gap=     0.310 Goal=   None    Shift=    0.000
 RMSDP=2.32D-03 MaxDP=5.42D-02 DE=-3.06D-01 OVMax= 5.58D-02

 Cycle   3  Pass 1  IDiag  1:
 E= -853.028032128432     Delta-E=       -0.277365288383 Rises=F Damp=F
 DIIS: error= 5.08D-03 at cycle   3 NSaved=   3.
 NSaved= 3 IEnMin= 3 EnMin= -853.028032128432     IErMin= 3 ErrMin= 5.08D-03
 ErrMax= 5.08D-03  0.00D+00 EMaxC= 1.00D-01 BMatC= 3.46D-03 BMatP= 1.68D-01
 IDIUse=3 WtCom= 9.49D-01 WtEn= 5.08D-02
 Coeff-Com: -0.950D-01 0.174D+00 0.921D+00
 Coeff-En:   0.000D+00 0.000D+00 0.100D+01
 Coeff:     -0.901D-01 0.165D+00 0.925D+00
 Gap=     0.313 Goal=   None    Shift=    0.000
 RMSDP=5.56D-04 MaxDP=1.13D-02 DE=-2.77D-01 OVMax= 2.97D-02

 Cycle   4  Pass 1  IDiag  1:
 E= -853.032245107171     Delta-E=       -0.004212978739 Rises=F Damp=F
 DIIS: error= 2.72D-03 at cycle   4 NSaved=   4.
 NSaved= 4 IEnMin= 4 EnMin= -853.032245107171     IErMin= 4 ErrMin= 2.72D-03
 ErrMax= 2.72D-03  0.00D+00 EMaxC= 1.00D-01 BMatC= 9.86D-04 BMatP= 3.46D-03
 IDIUse=3 WtCom= 9.73D-01 WtEn= 2.72D-02
 Coeff-Com:  0.113D-01-0.438D-01 0.323D+00 0.710D+00
 Coeff-En:   0.000D+00 0.000D+00 0.000D+00 0.100D+01
 Coeff:      0.110D-01-0.426D-01 0.314D+00 0.717D+00
 Gap=     0.314 Goal=   None    Shift=    0.000
 RMSDP=2.25D-04 MaxDP=5.09D-03 DE=-4.21D-03 OVMax= 9.80D-03

 Cycle   5  Pass 1  IDiag  1:
 E= -853.033481904260     Delta-E=       -0.001236797088 Rises=F Damp=F
 DIIS: error= 9.89D-04 at cycle   5 NSaved=   5.
 NSaved= 5 IEnMin= 5 EnMin= -853.033481904260     IErMin= 5 ErrMin= 9.89D-04
 ErrMax= 9.89D-04  0.00D+00 EMaxC= 1.00D-01 BMatC= 6.16D-05 BMatP= 9.86D-04
 IDIUse=3 WtCom= 9.90D-01 WtEn= 9.89D-03
 Coeff-Com:  0.613D-02-0.723D-02-0.127D+00-0.129D+00 0.126D+01
 Coeff-En:   0.000D+00 0.000D+00 0.000D+00 0.000D+00 0.100D+01
 Coeff:      0.607D-02-0.716D-02-0.126D+00-0.128D+00 0.126D+01
 Gap=     0.318 Goal=   None    Shift=    0.000
 RMSDP=1.05D-04 MaxDP=2.61D-03 DE=-1.24D-03 OVMax= 8.45D-03

 Cycle   6  Pass 1  IDiag  1:
 E= -853.033730695127     Delta-E=       -0.000248790867 Rises=F Damp=F
 DIIS: error= 3.20D-04 at cycle   6 NSaved=   6.
 NSaved= 6 IEnMin= 6 EnMin= -853.033730695127     IErMin= 6 ErrMin= 3.20D-04
 ErrMax= 3.20D-04  0.00D+00 EMaxC= 1.00D-01 BMatC= 1.55D-05 BMatP= 6.16D-05
 IDIUse=3 WtCom= 9.97D-01 WtEn= 3.20D-03
 Coeff-Com:  0.223D-03 0.454D-02-0.876D-01-0.166D+00 0.383D+00 0.865D+00
 Coeff-En:   0.000D+00 0.000D+00 0.000D+00 0.000D+00 0.000D+00 0.100D+01
 Coeff:      0.223D-03 0.453D-02-0.874D-01-0.165D+00 0.382D+00 0.866D+00
 Gap=     0.319 Goal=   None    Shift=    0.000
 RMSDP=4.59D-05 MaxDP=1.25D-03 DE=-2.49D-04 OVMax= 3.47D-03

 Cycle   7  Pass 1  IDiag  1:
 E= -853.033770643994     Delta-E=       -0.000039948867 Rises=F Damp=F
 DIIS: error= 1.14D-04 at cycle   7 NSaved=   7.
 NSaved= 7 IEnMin= 7 EnMin= -853.033770643994     IErMin= 7 ErrMin= 1.14D-04
 ErrMax= 1.14D-04  0.00D+00 EMaxC= 1.00D-01 BMatC= 1.35D-06 BMatP= 1.55D-05
 IDIUse=3 WtCom= 9.99D-01 WtEn= 1.14D-03
 Coeff-Com: -0.817D-03 0.106D-02 0.162D-01 0.718D-02-0.153D+00-0.894D-02
 Coeff-Com:  0.114D+01
 Coeff-En:   0.000D+00 0.000D+00 0.000D+00 0.000D+00 0.000D+00 0.000D+00
 Coeff-En:   0.100D+01
 Coeff:     -0.816D-03 0.106D-02 0.161D-01 0.717D-02-0.152D+00-0.893D-02
 Coeff:      0.114D+01
 Gap=     0.319 Goal=   None    Shift=    0.000
 RMSDP=1.74D-05 MaxDP=4.05D-04 DE=-3.99D-05 OVMax= 1.39D-03

 Cycle   8  Pass 1  IDiag  1:
 E= -853.033775342461     Delta-E=       -0.000004698467 Rises=F Damp=F
 DIIS: error= 5.13D-05 at cycle   8 NSaved=   8.
 NSaved= 8 IEnMin= 8 EnMin= -853.033775342461     IErMin= 8 ErrMin= 5.13D-05
 ErrMax= 5.13D-05  0.00D+00 EMaxC= 1.00D-01 BMatC= 2.27D-07 BMatP= 1.35D-06
 IDIUse=1 WtCom= 1.00D+00 WtEn= 0.00D+00
 Coeff-Com: -0.137D-03-0.472D-03 0.158D-01 0.229D-01-0.798D-01-0.110D+00
 Coeff-Com:  0.289D+00 0.863D+00
 Coeff:     -0.137D-03-0.472D-03 0.158D-01 0.229D-01-0.798D-01-0.110D+00
 Coeff:      0.289D+00 0.863D+00
 Gap=     0.319 Goal=   None    Shift=    0.000
 RMSDP=5.18D-06 MaxDP=1.20D-04 DE=-4.70D-06 OVMax= 4.43D-04

 Cycle   9  Pass 1  IDiag  1:
 E= -853.033775933454     Delta-E=       -0.000000590993 Rises=F Damp=F
 DIIS: error= 2.40D-05 at cycle   9 NSaved=   9.
 NSaved= 9 IEnMin= 9 EnMin= -853.033775933454     IErMin= 9 ErrMin= 2.40D-05
 ErrMax= 2.40D-05  0.00D+00 EMaxC= 1.00D-01 BMatC= 3.94D-08 BMatP= 2.27D-07
 IDIUse=1 WtCom= 1.00D+00 WtEn= 0.00D+00
 Coeff-Com:  0.136D-03-0.125D-03-0.332D-02-0.367D-02 0.265D-01 0.171D-01
 Coeff-Com: -0.171D+00-0.951D-01 0.123D+01
 Coeff:      0.136D-03-0.125D-03-0.332D-02-0.367D-02 0.265D-01 0.171D-01
 Coeff:     -0.171D+00-0.951D-01 0.123D+01
 Gap=     0.319 Goal=   None    Shift=    0.000
 RMSDP=2.90D-06 MaxDP=6.90D-05 DE=-5.91D-07 OVMax= 2.51D-04

 Cycle  10  Pass 1  IDiag  1:
 E= -853.033776131510     Delta-E=       -0.000000198056 Rises=F Damp=F
 DIIS: error= 1.01D-05 at cycle  10 NSaved=  10.
 NSaved=10 IEnMin=10 EnMin= -853.033776131510     IErMin=10 ErrMin= 1.01D-05
 ErrMax= 1.01D-05  0.00D+00 EMaxC= 1.00D-01 BMatC= 1.27D-08 BMatP= 3.94D-08
 IDIUse=1 WtCom= 1.00D+00 WtEn= 0.00D+00
 Coeff-Com:  0.108D-03 0.585D-04-0.585D-02-0.846D-02 0.306D-01 0.413D-01
 Coeff-Com: -0.131D+00-0.313D+00 0.272D+00 0.111D+01
 Coeff:      0.108D-03 0.585D-04-0.585D-02-0.846D-02 0.306D-01 0.413D-01
 Coeff:     -0.131D+00-0.313D+00 0.272D+00 0.111D+01
 Gap=     0.319 Goal=   None    Shift=    0.000
 RMSDP=2.14D-06 MaxDP=5.37D-05 DE=-1.98D-07 OVMax= 2.06D-04

 Cycle  11  Pass 1  IDiag  1:
 E= -853.033776194899     Delta-E=       -0.000000063390 Rises=F Damp=F
 DIIS: error= 5.84D-06 at cycle  11 NSaved=  11.
 NSaved=11 IEnMin=11 EnMin= -853.033776194899     IErMin=11 ErrMin= 5.84D-06
 ErrMax= 5.84D-06  0.00D+00 EMaxC= 1.00D-01 BMatC= 9.68D-10 BMatP= 1.27D-08
 IDIUse=1 WtCom= 1.00D+00 WtEn= 0.00D+00
 Coeff-Com: -0.222D-04 0.439D-05 0.908D-03 0.108D-02-0.625D-02-0.428D-02
 Coeff-Com:  0.353D-01 0.285D-01-0.194D+00-0.104D+00 0.124D+01
 Coeff:     -0.222D-04 0.439D-05 0.908D-03 0.108D-02-0.625D-02-0.428D-02
 Coeff:      0.353D-01 0.285D-01-0.194D+00-0.104D+00 0.124D+01
 Gap=     0.319 Goal=   None    Shift=    0.000
 RMSDP=6.92D-07 MaxDP=1.76D-05 DE=-6.34D-08 OVMax= 6.40D-05

 Cycle  12  Pass 1  IDiag  1:
 E= -853.033776200637     Delta-E=       -0.000000005738 Rises=F Damp=F
 DIIS: error= 1.46D-06 at cycle  12 NSaved=  12.
 NSaved=12 IEnMin=12 EnMin= -853.033776200637     IErMin=12 ErrMin= 1.46D-06
 ErrMax= 1.46D-06  0.00D+00 EMaxC= 1.00D-01 BMatC= 1.18D-10 BMatP= 9.68D-10
 IDIUse=1 WtCom= 1.00D+00 WtEn= 0.00D+00
 Coeff-Com: -0.113D-04-0.634D-05 0.637D-03 0.930D-03-0.356D-02-0.381D-02
 Coeff-Com:  0.157D-01 0.319D-01-0.452D-01-0.116D+00 0.159D+00 0.960D+00
 Coeff:     -0.113D-04-0.634D-05 0.637D-03 0.930D-03-0.356D-02-0.381D-02
 Coeff:      0.157D-01 0.319D-01-0.452D-01-0.116D+00 0.159D+00 0.960D+00
 Gap=     0.319 Goal=   None    Shift=    0.000
 RMSDP=1.36D-07 MaxDP=4.12D-06 DE=-5.74D-09 OVMax= 1.05D-05

 Cycle  13  Pass 1  IDiag  1:
 E= -853.033776200995     Delta-E=       -0.000000000358 Rises=F Damp=F
 DIIS: error= 8.21D-07 at cycle  13 NSaved=  13.
 NSaved=13 IEnMin=13 EnMin= -853.033776200995     IErMin=13 ErrMin= 8.21D-07
 ErrMax= 8.21D-07  0.00D+00 EMaxC= 1.00D-01 BMatC= 2.18D-11 BMatP= 1.18D-10
 IDIUse=1 WtCom= 1.00D+00 WtEn= 0.00D+00
 Coeff-Com:  0.438D-05-0.179D-06-0.198D-03-0.221D-03 0.122D-02 0.116D-02
 Coeff-Com: -0.786D-02-0.618D-02 0.377D-01 0.249D-01-0.242D+00-0.475D-01
 Coeff-Com:  0.124D+01
 Coeff:      0.438D-05-0.179D-06-0.198D-03-0.221D-03 0.122D-02 0.116D-02
 Coeff:     -0.786D-02-0.618D-02 0.377D-01 0.249D-01-0.242D+00-0.475D-01
 Coeff:      0.124D+01
 Gap=     0.319 Goal=   None    Shift=    0.000
 RMSDP=7.44D-08 MaxDP=2.26D-06 DE=-3.58D-10 OVMax= 5.94D-06

 Cycle  14  Pass 1  IDiag  1:
 E= -853.033776201048     Delta-E=       -0.000000000054 Rises=F Damp=F
 DIIS: error= 2.36D-07 at cycle  14 NSaved=  14.
 NSaved=14 IEnMin=14 EnMin= -853.033776201048     IErMin=14 ErrMin= 2.36D-07
 ErrMax= 2.36D-07  0.00D+00 EMaxC= 1.00D-01 BMatC= 2.59D-12 BMatP= 2.18D-11
 IDIUse=1 WtCom= 1.00D+00 WtEn= 0.00D+00
 Coeff-Com:  0.154D-05 0.118D-06-0.700D-04-0.963D-04 0.410D-03 0.456D-03
 Coeff-Com: -0.193D-02-0.317D-02 0.419D-02 0.140D-01-0.208D-01-0.990D-01
 Coeff-Com:  0.249D-01 0.108D+01
 Coeff:      0.154D-05 0.118D-06-0.700D-04-0.963D-04 0.410D-03 0.456D-03
 Coeff:     -0.193D-02-0.317D-02 0.419D-02 0.140D-01-0.208D-01-0.990D-01
 Coeff:      0.249D-01 0.108D+01
 Gap=     0.319 Goal=   None    Shift=    0.000
 RMSDP=2.17D-08 MaxDP=6.50D-07 DE=-5.37D-11 OVMax= 1.75D-06

 Cycle  15  Pass 1  IDiag  1:
 E= -853.033776201092     Delta-E=       -0.000000000044 Rises=F Damp=F
 DIIS: error= 9.03D-08 at cycle  15 NSaved=  15.
 NSaved=15 IEnMin=15 EnMin= -853.033776201092     IErMin=15 ErrMin= 9.03D-08
 ErrMax= 9.03D-08  0.00D+00 EMaxC= 1.00D-01 BMatC= 6.48D-13 BMatP= 2.59D-12
 IDIUse=1 WtCom= 1.00D+00 WtEn= 0.00D+00
 Coeff-Com: -0.684D-06-0.291D-06 0.381D-04 0.382D-04-0.242D-03-0.199D-03
 Coeff-Com:  0.158D-02 0.125D-02-0.894D-02-0.278D-02 0.526D-01-0.348D-02
 Coeff-Com: -0.290D+00 0.158D+00 0.109D+01
 Coeff:     -0.684D-06-0.291D-06 0.381D-04 0.382D-04-0.242D-03-0.199D-03
 Coeff:      0.158D-02 0.125D-02-0.894D-02-0.278D-02 0.526D-01-0.348D-02
 Coeff:     -0.290D+00 0.158D+00 0.109D+01
 Gap=     0.319 Goal=   None    Shift=    0.000
 RMSDP=1.24D-08 MaxDP=3.13D-07 DE=-4.37D-11 OVMax= 8.61D-07

 Cycle  16  Pass 1  IDiag  1:
 E= -853.033776201096     Delta-E=       -0.000000000004 Rises=F Damp=F
 DIIS: error= 2.31D-08 at cycle  16 NSaved=  16.
 NSaved=16 IEnMin=16 EnMin= -853.033776201096     IErMin=16 ErrMin= 2.31D-08
 ErrMax= 2.31D-08  0.00D+00 EMaxC= 1.00D-01 BMatC= 5.37D-14 BMatP= 6.48D-13
 IDIUse=1 WtCom= 1.00D+00 WtEn= 0.00D+00
 Coeff-Com:  0.644D-07-0.165D-06 0.160D-05 0.237D-05-0.577D-05-0.321D-05
 Coeff-Com: -0.566D-04 0.172D-03 0.672D-03-0.450D-03-0.584D-02 0.122D-01
 Coeff-Com:  0.397D-01-0.141D+00-0.190D+00 0.128D+01
 Coeff:      0.644D-07-0.165D-06 0.160D-05 0.237D-05-0.577D-05-0.321D-05
 Coeff:     -0.566D-04 0.172D-03 0.672D-03-0.450D-03-0.584D-02 0.122D-01
 Coeff:      0.397D-01-0.141D+00-0.190D+00 0.128D+01
 Gap=     0.319 Goal=   None    Shift=    0.000
 RMSDP=4.49D-09 MaxDP=9.81D-08 DE=-4.09D-12 OVMax= 2.92D-07

 SCF Done:  E(RHF) =  -853.033776201     A.U. after   16 cycles
            NFock= 16  Conv=0.45D-08     -V/T= 2.0032
 KE= 8.503339387403D+02 PE=-4.706738668622D+03 EE= 1.644959958351D+03
 Leave Link  502 at Thu Feb 23 16:26:51 2017, MaxMem=   805306368 cpu:        11.7
 (Enter /share/apps/gaussian/g09_D01/g09/l601.exe)
 Copying SCF densities to generalized density rwf, IOpCl= 0 IROHF=0.

 **********************************************************************

            Population analysis using the SCF density.

 **********************************************************************

 Orbital symmetries:
       Occupied  (A) (A) (A) (A) (A) (A) (A) (A) (A) (A) (A) (A)
                 (A) (A) (A) (A) (A) (A) (A) (A) (A) (A) (A) (A)
                 (A) (A) (A) (A) (A) (A) (A) (A) (A) (A) (A) (A)
                 (A) (A) (A) (A) (A) (A) (A) (A) (A) (A) (A) (A)
                 (A) (A) (A) (A) (A) (A) (A) (A) (A) (A) (A) (A)
                 (A) (A) (A) (A) (A) (A) (A) (A) (A) (A) (A)
       Virtual   (A) (A) (A) (A) (A) (A) (A) (A) (A) (A) (A) (A)
                 (A) (A) (A) (A) (A) (A) (A) (A) (A) (A) (A) (A)
                 (A) (A) (A) (A) (A) (A) (A) (A) (A) (A) (A) (A)
                 (A) (A) (A) (A) (A) (A) (A) (A) (A) (A) (A) (A)
                 (A) (A) (A) (A) (A) (A) (A) (A) (A) (A) (A) (A)
                 (A) (A) (A) (A) (A) (A) (A) (A) (A) (A) (A) (A)
                 (A) (A) (A) (A) (A) (A) (A) (A) (A) (A) (A) (A)
                 (A) (A) (A) (A) (A) (A) (A) (A) (A) (A) (A) (A)
                 (A) (A) (A) (A) (A) (A) (A) (A) (A) (A) (A) (A)
                 (A) (A) (A) (A) (A) (A) (A) (A) (A) (A) (A) (A)
                 (A) (A) (A) (A) (A) (A) (A) (A) (A) (A) (A) (A)
                 (A) (A) (A) (A) (A) (A) (A) (A) (A) (A) (A)
 The electronic state is 1-A.
 Alpha  occ. eigenvalues --  -20.44293 -20.43848 -15.52551 -11.29251 -11.25872
 Alpha  occ. eigenvalues --  -11.25632 -11.22437 -11.22390 -11.22094 -11.20812
 Alpha  occ. eigenvalues --  -11.20735 -11.20035 -11.19546 -11.19236 -11.18846
 Alpha  occ. eigenvalues --  -11.18674 -11.18605 -11.17805 -11.17302 -11.16824
 Alpha  occ. eigenvalues --   -1.39099  -1.34704  -1.28667  -1.16570  -1.15002
 Alpha  occ. eigenvalues --   -1.08998  -1.04434  -1.03878  -1.01164  -0.99954
 Alpha  occ. eigenvalues --   -0.99201  -0.93905  -0.88474  -0.85120  -0.84204
 Alpha  occ. eigenvalues --   -0.81303  -0.79530  -0.75143  -0.73019  -0.71211
 Alpha  occ. eigenvalues --   -0.69023  -0.67755  -0.67047  -0.66020  -0.64386
 Alpha  occ. eigenvalues --   -0.63846  -0.62572  -0.60919  -0.60699  -0.59359
 Alpha  occ. eigenvalues --   -0.58458  -0.57948  -0.57913  -0.56983  -0.55177
 Alpha  occ. eigenvalues --   -0.54486  -0.54043  -0.53584  -0.52887  -0.52475
 Alpha  occ. eigenvalues --   -0.51998  -0.48976  -0.48423  -0.46700  -0.45077
 Alpha  occ. eigenvalues --   -0.40446  -0.37765  -0.36295  -0.34859  -0.30230
 Alpha  occ. eigenvalues --   -0.27521
 Alpha virt. eigenvalues --    0.04383   0.11757   0.13577   0.16692   0.20147
 Alpha virt. eigenvalues --    0.23581   0.24402   0.26056   0.27182   0.27476
 Alpha virt. eigenvalues --    0.28109   0.28952   0.31518   0.32827   0.33443
 Alpha virt. eigenvalues --    0.33584   0.34041   0.34488   0.35290   0.35992
 Alpha virt. eigenvalues --    0.37499   0.37842   0.38139   0.39728   0.40600
 Alpha virt. eigenvalues --    0.42486   0.43866   0.44092   0.45507   0.46635
 Alpha virt. eigenvalues --    0.49429   0.50324   0.53770   0.54743   0.55451
 Alpha virt. eigenvalues --    0.56372   0.58090   0.62394   0.63659   0.64297
 Alpha virt. eigenvalues --    0.69500   0.71856   0.78062   0.81757   0.83056
 Alpha virt. eigenvalues --    0.85006   0.86752   0.87930   0.90770   0.92124
 Alpha virt. eigenvalues --    0.93109   0.93333   0.94388   0.94849   0.96044
 Alpha virt. eigenvalues --    0.96990   0.97462   0.99582   1.00059   1.01583
 Alpha virt. eigenvalues --    1.01934   1.03015   1.03707   1.03923   1.04799
 Alpha virt. eigenvalues --    1.05461   1.07296   1.07711   1.07945   1.08513
 Alpha virt. eigenvalues --    1.09484   1.09670   1.10801   1.11211   1.12958
 Alpha virt. eigenvalues --    1.13095   1.16042   1.16104   1.18425   1.20456
 Alpha virt. eigenvalues --    1.22923   1.24070   1.24574   1.25430   1.27557
 Alpha virt. eigenvalues --    1.28244   1.28539   1.29075   1.31037   1.31263
 Alpha virt. eigenvalues --    1.31941   1.33683   1.35567   1.37214   1.40488
 Alpha virt. eigenvalues --    1.41824   1.44820   1.45570   1.46293   1.48570
 Alpha virt. eigenvalues --    1.50136   1.51096   1.53284   1.54276   1.57671
 Alpha virt. eigenvalues --    1.60759   1.61704   1.64489   1.65065   1.66523
 Alpha virt. eigenvalues --    1.68285   1.71388   1.73008   1.75604   1.76470
 Alpha virt. eigenvalues --    1.77325   1.78295   1.79043   1.79765   1.84579
 Alpha virt. eigenvalues --    1.85341   1.89384   1.91966   1.93850   1.95047
 Alpha virt. eigenvalues --    1.99060   2.01500   2.06494   2.08872   2.12621
 Alpha virt. eigenvalues --    2.16659   2.19651   2.22371   2.22991   2.24527
 Alpha virt. eigenvalues --    2.34523   2.47702   2.50762   2.73024   2.73723
 Alpha virt. eigenvalues --    3.26794   3.78083   3.93390
          Condensed to atoms (all electrons):
               1          2          3          4          5          6
     1  C    4.856754   0.412222   0.235572   0.319565  -0.089094  -0.036786
     2  C    0.412222   5.317564  -0.102890  -0.058533   0.437967   0.390212
     3  C    0.235572  -0.102890   6.067654  -0.073122  -0.001539   0.004487
     4  O    0.319565  -0.058533  -0.073122   8.415146   0.002874  -0.001218
     5  C   -0.089094   0.437967  -0.001539   0.002874   5.182506  -0.030844
     6  H   -0.036786   0.390212   0.004487  -0.001218  -0.030844   0.411201
     7  C   -0.030513  -0.004753   0.324804   0.002867  -0.110048  -0.000449
     8  C   -0.097900   0.002536   0.177110  -0.009448  -0.000127  -0.000003
     9  H   -0.043148   0.003845  -0.007516   0.221486  -0.000218   0.000065
    10  C   -0.011514  -0.106288  -0.091341  -0.000244   0.445930   0.002255
    11  H    0.002404  -0.029396  -0.000210  -0.000005   0.392496  -0.001491
    12  H    0.001685  -0.000026  -0.033317   0.000000   0.002265   0.000001
    13  C    0.003764  -0.000031  -0.132101  -0.000077  -0.000003   0.000000
    14  O   -0.000231   0.000152  -0.097724  -0.031827  -0.000003   0.000002
    15  H   -0.000140   0.002179   0.002458   0.000000  -0.030734  -0.000025
    16  C   -0.000031   0.000000   0.009682   0.000002   0.000000   0.000000
    17  H   -0.000054   0.000001  -0.004100   0.000000   0.000001   0.000000
    18  C    0.000000   0.000000   0.000002   0.000000   0.000000   0.000000
    19  H   -0.000002   0.000000   0.000754   0.000002   0.000000   0.000000
    20  C    0.000000   0.000000   0.000005   0.000000   0.000000   0.000000
    21  C    0.000000   0.000000   0.000000   0.000000   0.000000   0.000000
    22  C    0.000000   0.000000   0.000000   0.000000   0.000000   0.000000
    23  H    0.000000   0.000000   0.000012   0.000000   0.000000   0.000000
    24  C    0.000000   0.000000   0.000000   0.000000   0.000000   0.000000
    25  H    0.000000   0.000000   0.000000   0.000000   0.000000   0.000000
    26  C    0.000000   0.000000   0.000000   0.000000   0.000000   0.000000
    27  H    0.000000   0.000000   0.000000   0.000000   0.000000   0.000000
    28  H    0.000000   0.000000   0.000000   0.000000   0.000000   0.000000
    29  N    0.000000   0.000000   0.000000   0.000000   0.000000   0.000000
    30  C    0.000000   0.000000   0.000000   0.000000   0.000000   0.000000
    31  C    0.000000   0.000000   0.000000   0.000000   0.000000   0.000000
    32  H    0.000000   0.000000   0.000000   0.000000   0.000000   0.000000
    33  H    0.000000   0.000000   0.000000   0.000000   0.000000   0.000000
    34  H    0.000000   0.000000   0.000000   0.000000   0.000000   0.000000
    35  H    0.000000   0.000000   0.000000   0.000000   0.000000   0.000000
    36  H    0.000000   0.000000   0.000000   0.000000   0.000000   0.000000
    37  H    0.000000   0.000000   0.000000   0.000000   0.000000   0.000000
               7          8          9         10         11         12
     1  C   -0.030513  -0.097900  -0.043148  -0.011514   0.002404   0.001685
     2  C   -0.004753   0.002536   0.003845  -0.106288  -0.029396  -0.000026
     3  C    0.324804   0.177110  -0.007516  -0.091341  -0.000210  -0.033317
     4  O    0.002867  -0.009448   0.221486  -0.000244  -0.000005   0.000000
     5  C   -0.110048  -0.000127  -0.000218   0.445930   0.392496   0.002265
     6  H   -0.000449  -0.000003   0.000065   0.002255  -0.001491   0.000001
     7  C    5.180770  -0.018287  -0.000135   0.483490   0.002525   0.390995
     8  C   -0.018287   4.722484  -0.012936   0.002140  -0.000001  -0.001469
     9  H   -0.000135  -0.012936   0.285962   0.000029   0.000001  -0.000002
    10  C    0.483490   0.002140   0.000029   5.208307  -0.031806  -0.028690
    11  H    0.002525  -0.000001   0.000001  -0.031806   0.417922  -0.000035
    12  H    0.390995  -0.001469  -0.000002  -0.028690  -0.000035   0.417964
    13  C   -0.004427   0.255434   0.002215   0.000129   0.000000  -0.000184
    14  O    0.002186   0.490921   0.086770   0.000001   0.000000  -0.000012
    15  H   -0.033774  -0.000023   0.000000   0.399977  -0.001185  -0.001238
    16  C   -0.000564  -0.091322  -0.000073  -0.000002   0.000000   0.000050
    17  H    0.001998  -0.022952  -0.000032   0.000045   0.000000   0.005697
    18  C    0.000001   0.004711  -0.000001   0.000000   0.000000   0.000000
    19  H   -0.000016   0.001513   0.000007   0.000000   0.000000   0.000003
    20  C   -0.000001  -0.000069   0.000000   0.000000   0.000000  -0.000012
    21  C    0.000000  -0.000091   0.000000   0.000000   0.000000   0.000000
    22  C    0.000000  -0.000001   0.000000   0.000000   0.000000   0.000000
    23  H   -0.000020  -0.000019   0.000000   0.000000   0.000000  -0.000014
    24  C    0.000000   0.000000   0.000000   0.000000   0.000000   0.000000
    25  H    0.000000  -0.000002   0.000000   0.000000   0.000000   0.000000
    26  C    0.000000   0.000000   0.000000   0.000000   0.000000   0.000000
    27  H    0.000000   0.000000   0.000000   0.000000   0.000000   0.000000
    28  H    0.000000   0.000000   0.000000   0.000000   0.000000   0.000000
    29  N    0.000000   0.000000   0.000000   0.000000   0.000000   0.000000
    30  C    0.000000   0.000000   0.000000   0.000000   0.000000   0.000000
    31  C    0.000000   0.000000   0.000000   0.000000   0.000000   0.000000
    32  H    0.000000   0.000000   0.000000   0.000000   0.000000   0.000000
    33  H    0.000000   0.000000   0.000000   0.000000   0.000000   0.000000
    34  H    0.000000   0.000000   0.000000   0.000000   0.000000   0.000000
    35  H    0.000000   0.000000   0.000000   0.000000   0.000000   0.000000
    36  H    0.000000   0.000000   0.000000   0.000000   0.000000   0.000000
    37  H    0.000000   0.000000   0.000000   0.000000   0.000000   0.000000
              13         14         15         16         17         18
     1  C    0.003764  -0.000231  -0.000140  -0.000031  -0.000054   0.000000
     2  C   -0.000031   0.000152   0.002179   0.000000   0.000001   0.000000
     3  C   -0.132101  -0.097724   0.002458   0.009682  -0.004100   0.000002
     4  O   -0.000077  -0.031827   0.000000   0.000002   0.000000   0.000000
     5  C   -0.000003  -0.000003  -0.030734   0.000000   0.000001   0.000000
     6  H    0.000000   0.000002  -0.000025   0.000000   0.000000   0.000000
     7  C   -0.004427   0.002186  -0.033774  -0.000564   0.001998   0.000001
     8  C    0.255434   0.490921  -0.000023  -0.091322  -0.022952   0.004711
     9  H    0.002215   0.086770   0.000000  -0.000073  -0.000032  -0.000001
    10  C    0.000129   0.000001   0.399977  -0.000002   0.000045   0.000000
    11  H    0.000000   0.000000  -0.001185   0.000000   0.000000   0.000000
    12  H   -0.000184  -0.000012  -0.001238   0.000050   0.005697   0.000000
    13  C    5.621575  -0.108099   0.000002   0.472062   0.392105  -0.098777
    14  O   -0.108099   8.350779   0.000000   0.009136   0.001149   0.000439
    15  H    0.000002   0.000000   0.426938   0.000000  -0.000005   0.000000
    16  C    0.472062   0.009136   0.000000   5.131243  -0.038897   0.293473
    17  H    0.392105   0.001149  -0.000005  -0.038897   0.423887   0.000525
    18  C   -0.098777   0.000439   0.000000   0.293473   0.000525   5.404293
    19  H   -0.044503   0.009893   0.000000   0.391830   0.001232  -0.038458
    20  C   -0.003902  -0.000001   0.000000  -0.047131   0.001005   0.448989
    21  C    0.001729  -0.000005   0.000000  -0.058497   0.000112   0.443713
    22  C    0.000075   0.000000   0.000000   0.002037  -0.000053  -0.105270
    23  H    0.000960   0.000000   0.000000  -0.000675   0.004148  -0.033798
    24  C   -0.000052   0.000000   0.000000   0.002581  -0.000002  -0.107467
    25  H    0.000033   0.000000   0.000000   0.002154   0.000003  -0.039268
    26  C    0.000003   0.000000   0.000000   0.000089   0.000002  -0.002591
    27  H    0.000002   0.000000   0.000000  -0.000046  -0.000001   0.002498
    28  H    0.000000   0.000000   0.000000  -0.000052   0.000000   0.002388
    29  N    0.000000   0.000000   0.000000  -0.000001   0.000000  -0.000289
    30  C    0.000000   0.000000   0.000000   0.000000   0.000000   0.000009
    31  C    0.000000   0.000000   0.000000   0.000000   0.000000   0.000009
    32  H    0.000000   0.000000   0.000000   0.000000   0.000000  -0.000006
    33  H    0.000000   0.000000   0.000000   0.000000   0.000000   0.000000
    34  H    0.000000   0.000000   0.000000   0.000000   0.000000  -0.000004
    35  H    0.000000   0.000000   0.000000   0.000000   0.000000  -0.000005
    36  H    0.000000   0.000000   0.000000   0.000000   0.000000   0.000000
    37  H    0.000000   0.000000   0.000000   0.000000   0.000000  -0.000004
              19         20         21         22         23         24
     1  C   -0.000002   0.000000   0.000000   0.000000   0.000000   0.000000
     2  C    0.000000   0.000000   0.000000   0.000000   0.000000   0.000000
     3  C    0.000754   0.000005   0.000000   0.000000   0.000012   0.000000
     4  O    0.000002   0.000000   0.000000   0.000000   0.000000   0.000000
     5  C    0.000000   0.000000   0.000000   0.000000   0.000000   0.000000
     6  H    0.000000   0.000000   0.000000   0.000000   0.000000   0.000000
     7  C   -0.000016  -0.000001   0.000000   0.000000  -0.000020   0.000000
     8  C    0.001513  -0.000069  -0.000091  -0.000001  -0.000019   0.000000
     9  H    0.000007   0.000000   0.000000   0.000000   0.000000   0.000000
    10  C    0.000000   0.000000   0.000000   0.000000   0.000000   0.000000
    11  H    0.000000   0.000000   0.000000   0.000000   0.000000   0.000000
    12  H    0.000003  -0.000012   0.000000   0.000000  -0.000014   0.000000
    13  C   -0.044503  -0.003902   0.001729   0.000075   0.000960  -0.000052
    14  O    0.009893  -0.000001  -0.000005   0.000000   0.000000   0.000000
    15  H    0.000000   0.000000   0.000000   0.000000   0.000000   0.000000
    16  C    0.391830  -0.047131  -0.058497   0.002037  -0.000675   0.002581
    17  H    0.001232   0.001005   0.000112  -0.000053   0.004148  -0.000002
    18  C   -0.038458   0.448989   0.443713  -0.105270  -0.033798  -0.107467
    19  H    0.386517   0.001629   0.001452  -0.000046   0.000046   0.000113
    20  C    0.001629   5.102570  -0.072469   0.476575   0.392455  -0.010501
    21  C    0.001452  -0.072469   5.111066  -0.012237   0.001864   0.472726
    22  C   -0.000046   0.476575  -0.012237   5.235514  -0.030439  -0.059954
    23  H    0.000046   0.392455   0.001864  -0.030439   0.415785   0.000020
    24  C    0.000113  -0.010501   0.472726  -0.059954   0.000020   5.238656
    25  H    0.002251   0.001926   0.394285   0.000017  -0.000040  -0.027203
    26  C    0.000003  -0.089650  -0.092107   0.429100   0.002087   0.435038
    27  H    0.000000  -0.033058  -0.000108   0.402178  -0.001403   0.001940
    28  H   -0.000002  -0.000129  -0.031101   0.001985   0.000001   0.401560
    29  N    0.000000   0.004197   0.004182  -0.048105  -0.000017  -0.049611
    30  C    0.000000  -0.000052  -0.000114  -0.007780  -0.000003   0.000588
    31  C    0.000000  -0.000110  -0.000040   0.000568   0.000000  -0.007180
    32  H    0.000000  -0.000049   0.000000  -0.000265   0.000000   0.000164
    33  H    0.000000   0.000000   0.000001   0.000268   0.000000  -0.000023
    34  H    0.000000  -0.000057   0.000001   0.000152   0.000000   0.000128
    35  H    0.000000   0.000000  -0.000048   0.000180   0.000000   0.000214
    36  H    0.000000   0.000001   0.000000  -0.000022   0.000000   0.000253
    37  H    0.000000   0.000002  -0.000054   0.000095   0.000000   0.000076
              25         26         27         28         29         30
     1  C    0.000000   0.000000   0.000000   0.000000   0.000000   0.000000
     2  C    0.000000   0.000000   0.000000   0.000000   0.000000   0.000000
     3  C    0.000000   0.000000   0.000000   0.000000   0.000000   0.000000
     4  O    0.000000   0.000000   0.000000   0.000000   0.000000   0.000000
     5  C    0.000000   0.000000   0.000000   0.000000   0.000000   0.000000
     6  H    0.000000   0.000000   0.000000   0.000000   0.000000   0.000000
     7  C    0.000000   0.000000   0.000000   0.000000   0.000000   0.000000
     8  C   -0.000002   0.000000   0.000000   0.000000   0.000000   0.000000
     9  H    0.000000   0.000000   0.000000   0.000000   0.000000   0.000000
    10  C    0.000000   0.000000   0.000000   0.000000   0.000000   0.000000
    11  H    0.000000   0.000000   0.000000   0.000000   0.000000   0.000000
    12  H    0.000000   0.000000   0.000000   0.000000   0.000000   0.000000
    13  C    0.000033   0.000003   0.000002   0.000000   0.000000   0.000000
    14  O    0.000000   0.000000   0.000000   0.000000   0.000000   0.000000
    15  H    0.000000   0.000000   0.000000   0.000000   0.000000   0.000000
    16  C    0.002154   0.000089  -0.000046  -0.000052  -0.000001   0.000000
    17  H    0.000003   0.000002  -0.000001   0.000000   0.000000   0.000000
    18  C   -0.039268  -0.002591   0.002498   0.002388  -0.000289   0.000009
    19  H    0.002251   0.000003   0.000000  -0.000002   0.000000   0.000000
    20  C    0.001926  -0.089650  -0.033058  -0.000129   0.004197  -0.000052
    21  C    0.394285  -0.092107  -0.000108  -0.031101   0.004182  -0.000114
    22  C    0.000017   0.429100   0.402178   0.001985  -0.048105  -0.007780
    23  H   -0.000040   0.002087  -0.001403   0.000001  -0.000017  -0.000003
    24  C   -0.027203   0.435038   0.001940   0.401560  -0.049611   0.000588
    25  H    0.413029   0.002059   0.000002  -0.001463  -0.000016   0.000000
    26  C    0.002059   4.809396  -0.036603  -0.037201   0.209158  -0.067761
    27  H    0.000002  -0.036603   0.424233  -0.000024  -0.004295  -0.001035
    28  H   -0.001463  -0.037201  -0.000024   0.423292  -0.004380  -0.000018
    29  N   -0.000016   0.209158  -0.004295  -0.004380   7.627343   0.229394
    30  C    0.000000  -0.067761  -0.001035  -0.000018   0.229394   5.093250
    31  C   -0.000003  -0.066212  -0.000019  -0.000984   0.228899  -0.051963
    32  H    0.000000  -0.000011  -0.000699  -0.000001  -0.043958   0.373531
    33  H    0.000000   0.002531   0.000154   0.000000  -0.029304   0.382899
    34  H    0.000000   0.000126  -0.000412  -0.000001  -0.045788   0.372429
    35  H    0.000000   0.000022   0.000000  -0.000728  -0.044240   0.001993
    36  H    0.000000   0.002521   0.000000   0.000148  -0.029540  -0.005636
    37  H    0.000000   0.000078  -0.000001  -0.000339  -0.044922   0.001853
              31         32         33         34         35         36
     1  C    0.000000   0.000000   0.000000   0.000000   0.000000   0.000000
     2  C    0.000000   0.000000   0.000000   0.000000   0.000000   0.000000
     3  C    0.000000   0.000000   0.000000   0.000000   0.000000   0.000000
     4  O    0.000000   0.000000   0.000000   0.000000   0.000000   0.000000
     5  C    0.000000   0.000000   0.000000   0.000000   0.000000   0.000000
     6  H    0.000000   0.000000   0.000000   0.000000   0.000000   0.000000
     7  C    0.000000   0.000000   0.000000   0.000000   0.000000   0.000000
     8  C    0.000000   0.000000   0.000000   0.000000   0.000000   0.000000
     9  H    0.000000   0.000000   0.000000   0.000000   0.000000   0.000000
    10  C    0.000000   0.000000   0.000000   0.000000   0.000000   0.000000
    11  H    0.000000   0.000000   0.000000   0.000000   0.000000   0.000000
    12  H    0.000000   0.000000   0.000000   0.000000   0.000000   0.000000
    13  C    0.000000   0.000000   0.000000   0.000000   0.000000   0.000000
    14  O    0.000000   0.000000   0.000000   0.000000   0.000000   0.000000
    15  H    0.000000   0.000000   0.000000   0.000000   0.000000   0.000000
    16  C    0.000000   0.000000   0.000000   0.000000   0.000000   0.000000
    17  H    0.000000   0.000000   0.000000   0.000000   0.000000   0.000000
    18  C    0.000009  -0.000006   0.000000  -0.000004  -0.000005   0.000000
    19  H    0.000000   0.000000   0.000000   0.000000   0.000000   0.000000
    20  C   -0.000110  -0.000049   0.000000  -0.000057   0.000000   0.000001
    21  C   -0.000040   0.000000   0.000001   0.000001  -0.000048   0.000000
    22  C    0.000568  -0.000265   0.000268   0.000152   0.000180  -0.000022
    23  H    0.000000   0.000000   0.000000   0.000000   0.000000   0.000000
    24  C   -0.007180   0.000164  -0.000023   0.000128   0.000214   0.000253
    25  H   -0.000003   0.000000   0.000000   0.000000   0.000000   0.000000
    26  C   -0.066212  -0.000011   0.002531   0.000126   0.000022   0.002521
    27  H   -0.000019  -0.000699   0.000154  -0.000412   0.000000   0.000000
    28  H   -0.000984  -0.000001   0.000000  -0.000001  -0.000728   0.000148
    29  N    0.228899  -0.043958  -0.029304  -0.045788  -0.044240  -0.029540
    30  C   -0.051963   0.373531   0.382899   0.372429   0.001993  -0.005636
    31  C    5.091675   0.001978  -0.005577   0.001880   0.373003   0.382767
    32  H    0.001978   0.521973  -0.023583  -0.041970  -0.000148   0.000072
    33  H   -0.005577  -0.023583   0.479049  -0.025429   0.000088   0.001862
    34  H    0.001880  -0.041970  -0.025429   0.527699   0.000244   0.000191
    35  H    0.373003  -0.000148   0.000088   0.000244   0.520620  -0.023375
    36  H    0.382767   0.000072   0.001862   0.000191  -0.023375   0.479652
    37  H    0.372795   0.000236   0.000168  -0.000167  -0.041562  -0.025488
              37
     1  C    0.000000
     2  C    0.000000
     3  C    0.000000
     4  O    0.000000
     5  C    0.000000
     6  H    0.000000
     7  C    0.000000
     8  C    0.000000
     9  H    0.000000
    10  C    0.000000
    11  H    0.000000
    12  H    0.000000
    13  C    0.000000
    14  O    0.000000
    15  H    0.000000
    16  C    0.000000
    17  H    0.000000
    18  C   -0.000004
    19  H    0.000000
    20  C    0.000002
    21  C   -0.000054
    22  C    0.000095
    23  H    0.000000
    24  C    0.000076
    25  H    0.000000
    26  C    0.000078
    27  H   -0.000001
    28  H   -0.000339
    29  N   -0.044922
    30  C    0.001853
    31  C    0.372795
    32  H    0.000236
    33  H    0.000168
    34  H   -0.000167
    35  H   -0.041562
    36  H   -0.025488
    37  H    0.525451
 Mulliken charges:
               1
     1  C    0.477448
     2  C   -0.264761
     3  C   -0.278680
     4  O   -0.787466
     5  C   -0.201431
     6  H    0.262593
     7  C   -0.186650
     8  C    0.597803
     9  H    0.463682
    10  C   -0.272419
    11  H    0.248781
    12  H    0.246342
    13  C   -0.357933
    14  O   -0.713526
    15  H    0.235570
    16  C   -0.077050
    17  H    0.234186
    18  C   -0.175112
    19  H    0.285783
    20  C   -0.172162
    21  C   -0.164259
    22  C   -0.284573
    23  H    0.249051
    24  C   -0.292065
    25  H    0.252237
    26  C    0.499924
    27  H    0.246697
    28  H    0.247048
    29  N   -0.958708
    30  C   -0.321585
    31  C   -0.321487
    32  H    0.212735
    33  H    0.216896
    34  H    0.210976
    35  H    0.213741
    36  H    0.216593
    37  H    0.211783
 Sum of Mulliken charges =   0.00000
 Mulliken charges with hydrogens summed into heavy atoms:
               1
     1  C    0.477448
     2  C   -0.002169
     3  C   -0.278680
     4  O   -0.323784
     5  C    0.047350
     7  C    0.059691
     8  C    0.597803
    10  C   -0.036849
    13  C   -0.123747
    14  O   -0.713526
    16  C    0.208733
    18  C   -0.175112
    20  C    0.076888
    21  C    0.087978
    22  C   -0.037875
    24  C   -0.045016
    26  C    0.499924
    29  N   -0.958708
    30  C    0.319021
    31  C    0.320630
 Electronic spatial extent (au):  <R**2>=          10373.0689
 Charge=              0.0000 electrons
 Dipole moment (field-independent basis, Debye):
    X=              8.7408    Y=              4.3548    Z=             -0.3498  Tot=              9.7718
 Quadrupole moment (field-independent basis, Debye-Ang):
   XX=            -93.7062   YY=           -113.4896   ZZ=           -128.7325
   XY=            -14.8178   XZ=              1.6565   YZ=              1.7333
 Traceless Quadrupole moment (field-independent basis, Debye-Ang):
   XX=             18.2699   YY=             -1.5135   ZZ=            -16.7564
   XY=            -14.8178   XZ=              1.6565   YZ=              1.7333
 Octapole moment (field-independent basis, Debye-Ang**2):
  XXX=            288.5870  YYY=             15.1364  ZZZ=              3.1137  XYY=             46.1186
  XXY=             98.1316  XXZ=             -9.4198  XZZ=              3.1568  YZZ=             -9.1736
  YYZ=             -2.8618  XYZ=              4.9382
 Hexadecapole moment (field-independent basis, Debye-Ang**3):
 XXXX=         -10621.3543 YYYY=          -1263.7132 ZZZZ=           -153.3183 XXXY=           -294.1822
 XXXZ=             42.8440 YYYX=            -43.1645 YYYZ=              2.8443 ZZZX=             -8.3320
 ZZZY=             -1.0373 XXYY=          -2233.3830 XXZZ=          -2315.6934 YYZZ=           -262.4196
 XXYZ=             25.0625 YYXZ=             15.4221 ZZXY=             50.8218
 N-N= 1.358410995330D+03 E-N=-4.706738668373D+03  KE= 8.503339387403D+02
 No NMR shielding tensors so no spin-rotation constants.
 Leave Link  601 at Thu Feb 23 16:26:51 2017, MaxMem=   805306368 cpu:         0.2
 (Enter /share/apps/gaussian/g09_D01/g09/l602.exe)
 FitSet:  NAtFit=    37 NAtPot=    37 NAtFrz=     0 MDM=    41 TotChg=   0.00000
 Merz-Kollman atomic radii used.

 **********************************************************************

            Electrostatic Properties Using The SCF Density

 **********************************************************************

       Atomic Center    1 is at  -4.770302 -0.486699  0.071042
       Atomic Center    2 is at  -5.921501  0.313882  0.001018
       Atomic Center    3 is at  -3.475300  0.110594  0.007546
       Atomic Center    4 is at  -4.913430 -1.820993  0.192579
       Atomic Center    5 is at  -5.811379  1.692343 -0.106194
       Atomic Center    6 is at  -6.891169 -0.183624  0.018843
       Atomic Center    7 is at  -3.408530  1.516357 -0.094626
       Atomic Center    8 is at  -2.285460 -0.762901  0.038870
       Atomic Center    9 is at  -3.923229 -2.164657  0.183928
       Atomic Center   10 is at  -4.550030  2.301682 -0.147111
       Atomic Center   11 is at  -6.710406  2.307989 -0.164477
       Atomic Center   12 is at  -2.441699  2.016048 -0.127927
       Atomic Center   13 is at  -0.958392 -0.210046 -0.020910
       Atomic Center   14 is at  -2.466290 -2.032631  0.118489
       Atomic Center   15 is at  -4.465207  3.385768 -0.216535
       Atomic Center   16 is at   0.156375 -1.006352 -0.071038
       Atomic Center   17 is at  -0.849863  0.872648 -0.020557
       Atomic Center   18 is at   1.523575 -0.589219 -0.072591
       Atomic Center   19 is at  -0.013424 -2.088321 -0.090503
       Atomic Center   20 is at   1.940135  0.757592  0.071903
       Atomic Center   21 is at   2.546184 -1.563819 -0.164882
       Atomic Center   22 is at   3.269851  1.107727  0.117617
       Atomic Center   23 is at   1.195947  1.550342  0.157788
       Atomic Center   24 is at   3.883690 -1.234449 -0.130869
       Atomic Center   25 is at   2.257128 -2.611536 -0.259520
       Atomic Center   26 is at   4.294154  0.119953  0.009526
       Atomic Center   27 is at   3.529490  2.156790  0.233297
       Atomic Center   28 is at   4.625478 -2.026540 -0.196000
       Atomic Center   29 is at   5.608262  0.460890  0.036522
       Atomic Center   30 is at   5.997278  1.852828  0.200948
       Atomic Center   31 is at   6.638732 -0.555332 -0.125102
       Atomic Center   32 is at   5.587020  2.270032  1.133635
       Atomic Center   33 is at   7.088309  1.922655  0.237511
       Atomic Center   34 is at   5.637485  2.467442 -0.637558
       Atomic Center   35 is at   6.495585 -1.112484 -1.063386
       Atomic Center   36 is at   7.619263 -0.070103 -0.152015
       Atomic Center   37 is at   6.624741 -1.274537  0.708393
    1512 points will be used for fitting atomic charges
 Fitting point charges to electrostatic potential
 Charges from ESP fit, RMS=   0.00097 RRMS=   0.04702:
 ESP charges:
               1
     1  C    0.825193
     2  C   -0.564151
     3  C   -0.688873
     4  O   -0.761754
     5  C    0.065105
     6  H    0.242482
     7  C    0.044637
     8  C    0.982220
     9  H    0.523449
    10  C   -0.386704
    11  H    0.150583
    12  H    0.149758
    13  C   -0.661123
    14  O   -0.694104
    15  H    0.189096
    16  C    0.002408
    17  H    0.227799
    18  C    0.013774
    19  H    0.174114
    20  C   -0.058165
    21  C   -0.127451
    22  C   -0.441928
    23  H    0.171220
    24  C   -0.409348
    25  H    0.177384
    26  C    0.415101
    27  H    0.207218
    28  H    0.209095
    29  N   -0.175543
    30  C   -0.243565
    31  C   -0.219754
    32  H    0.103902
    33  H    0.134641
    34  H    0.102143
    35  H    0.095084
    36  H    0.133659
    37  H    0.092400
 Sum of ESP charges =   0.00000
 ESP charges with hydrogens summed into heavy atoms:
               1
     1  C    0.825193
     2  C   -0.321669
     3  C   -0.688873
     4  O   -0.238305
     5  C    0.215688
     7  C    0.194395
     8  C    0.982220
    10  C   -0.197609
    13  C   -0.433324
    14  O   -0.694104
    16  C    0.176523
    18  C    0.013774
    20  C    0.113055
    21  C    0.049933
    22  C   -0.234710
    24  C   -0.200253
    26  C    0.415101
    29  N   -0.175543
    30  C    0.097120
    31  C    0.101389
 Charge=   0.00000 Dipole=     8.7410     4.3569    -0.3480 Tot=     9.7728
 -----------------------------------------------------------------

              Electrostatic Properties (Atomic Units)

 -----------------------------------------------------------------
    Center     Electric         -------- Electric Field --------
               Potential          X             Y             Z
 -----------------------------------------------------------------
    1 Atom    -14.552091
    2 Atom    -14.639835
    3 Atom    -14.621660
    4 Atom    -22.211528
    5 Atom    -14.613701
    6 Atom     -1.096343
    7 Atom    -14.608429
    8 Atom    -14.517118
    9 Atom     -0.968564
   10 Atom    -14.633870
   11 Atom     -1.081873
   12 Atom     -1.074323
   13 Atom    -14.629094
   14 Atom    -22.211016
   15 Atom     -1.091329
   16 Atom    -14.589124
   17 Atom     -1.078463
   18 Atom    -14.615287
   19 Atom     -1.071470
   20 Atom    -14.601088
   21 Atom    -14.602231
   22 Atom    -14.618423
   23 Atom     -1.067498
   24 Atom    -14.620839
   25 Atom     -1.069081
   26 Atom    -14.548679
   27 Atom     -1.073359
   28 Atom     -1.074727
   29 Atom    -18.190350
   30 Atom    -14.577532
   31 Atom    -14.577333
   32 Atom     -1.079975
   33 Atom     -1.067829
   34 Atom     -1.081547
   35 Atom     -1.080011
   36 Atom     -1.067823
   37 Atom     -1.081615
 -----------------------------------------------------------------
 Leave Link  602 at Thu Feb 23 16:26:52 2017, MaxMem=   805306368 cpu:         0.2
 (Enter /share/apps/gaussian/g09_D01/g09/l9999.exe)
 1\1\GINC-NXN33\SP\RHF\3-21G*\C17H17N1O2\BTX008\23-Feb-2017\0\\#p HF/3-
 21G* pop=(ESP)\\central molecules ESP Charges\\0,1\C,0,-4.33833,1.0806
 69,-0.510124\C,0,-5.43568,0.291355,-0.889463\C,0,-3.019754,0.534034,-0
 .529353\O,0,-4.555908,2.353425,-0.124962\C,0,-5.246537,-1.017199,-1.30
 8614\H,0,-6.429273,0.735364,-0.828519\C,0,-2.871355,-0.798632,-0.96872
 3\C,0,-1.892701,1.376238,-0.081987\H,0,-3.596258,2.687909,0.131693\C,0
 ,-3.958323,-1.566856,-1.35711\H,0,-6.104499,-1.626206,-1.597885\H,0,-1
 .881983,-1.250744,-1.016673\C,0,-0.544837,0.87266,-0.083751\O,0,-2.147
 662,2.5724,0.312278\H,0,-3.809852,-2.590199,-1.700594\C,0,0.504605,1.6
 10432,0.399658\H,0,-0.365942,-0.121701,-0.487791\C,0,1.889223,1.255371
 ,0.401519\H,0,0.263017,2.595352,0.813707\C,0,2.405701,0.080669,-0.1998
 34\C,0,2.831242,2.138877,0.981269\C,0,3.753431,-0.195101,-0.219886\H,0
 ,1.727518,-0.631873,-0.670999\C,0,4.184173,1.877835,0.980835\H,0,2.465
 984,3.060387,1.436929\C,0,4.694686,0.694415,0.379597\H,0,4.091677,-1.1
 10288,-0.69879\H,0,4.862092,2.597806,1.432463\N,0,6.024445,0.419483,0.
 378383\C,0,6.518534,-0.789599,-0.261819\C,0,6.964599,1.314465,1.038545
 \H,0,6.231918,-0.819189,-1.324482\H,0,7.609969,-0.816019,-0.193754\H,0
 ,6.117821,-1.68999,0.227075\H,0,6.692034,1.458744,2.095039\H,0,7.96726
 2,0.878454,0.991923\H,0,6.986844,2.301109,0.550483\\Version=ES64L-G09R
 evD.01\State=1-A\HF=-853.0337762\RMSD=4.486e-09\Dipole=3.5129317,-1.55
 66178,-0.1283821\Quadrupole=12.0840491,-3.3035666,-8.7804825,10.322513
 5,5.6466501,6.2908033\PG=C01 [X(C17H17N1O2)]\\@


 IT IS DOUBTED WHETHER A MAN EVER BRINGS HIS FACULTIES TO BEAR WITH THEIR FULL FORCE
 ON A SUBJECT UNTIL HE WRITES UPON IT.

                          -- CICERO
 Job cpu time:       0 days  0 hours  0 minutes 14.4 seconds.
 File lengths (MBytes):  RWF=     19 Int=      0 D2E=      0 Chk=      3 Scr=      1
 Normal termination of Gaussian 09 at Thu Feb 23 16:26:52 2017.
