     288
 i =        2, E =      -985.8130449246
  C         7.1981135720        0.1119727270       12.9227765330
  C         1.7585058136       11.7552303839        1.8356858766
  C         0.0825885841        3.0817050329        5.5225065535
  C        12.2156672534        2.8532078232        1.8514330313
  C        10.5400152955        0.1142234058        5.5383924920
  C        -1.5930125327       11.7555763200        9.2093445584
  C        -3.2686644760        3.0816919187       12.8963039504
  C         8.8644141501        2.8531945516        9.2252303822
  C         7.1887677479        6.0491738533       12.9121389371
  C         1.7582349638        5.8206258283        1.8355979165
  C         0.0825885894        9.0166049381        5.5225066951
  C        12.2156671955        8.7881076400        1.8514329428
  C        10.5400152287        6.0491231955        5.5383924143
  C        -1.5930124111        5.8206765684        9.2093444748
  C        -3.2686646145        9.0165918603       12.8963041574
  C         8.8644141697        8.7880944759        9.2252302526
  C        -0.6428179195        0.1151900649       12.9130222614
  C         9.5898204983       11.7546094940        1.8347147732
  C         7.9141661797        3.0826249167        5.5216302610
  C         4.3840842859        2.8522892110        1.8523138960
  C         2.7084399735        0.1151458523        5.5392666714
  C         6.2385627929       11.7546537009        9.2084707304
  C         4.5629181898        3.0826106611       12.8954229666
  C         1.0328365203        2.8522748378        9.2261066673
  C        -0.6428179349        6.0500898795       12.9130221511
  C         9.5898205672        5.8197097154        1.8347147193
  C         7.9141661540        9.0175247621        5.5216304252
  C         4.3840842316        8.7871890444        1.8523138244
  C         2.7084400451        6.0500456171        5.5392666070
  C         6.2385626895        5.8197540648        9.2084702991
  C         4.5629182026        9.0175105362       12.8954230493
  C         1.0328365029        8.7871746562        9.2261065860
  C         7.5665399031        0.9906836337       13.9345579568
  C         1.3838653428       10.8825079748        0.8193211867
  C        -0.2921958239        3.9543631933        4.5060751017
  C        12.5904660215        1.9805244085        2.8678301362
  C        10.9148239883        0.9869180817        6.5547721204
  C        -1.9678215028       10.8828815024        8.1929650754
  C        -3.6434629881        3.9543751166       11.8799068743
  C         9.2391980001        1.9805364437       10.2416620575
  C         7.5635412470        6.9218202146       13.9285885686
  C         1.3834614988        4.9479794043        0.8191483899
  C        -0.2921956756        9.8892631092        4.5060751350
  C        12.5904659140        7.9154245450        2.8678300673
  C        10.9148238050        6.9218177827        6.5547720009
  C        -1.9678214536        4.9479817397        8.1929653088
  C        -3.6434630485        9.8892751688       11.8799066891
  C         9.2391980285        7.9154365074       10.2416621269
  C        -0.2647840385        0.9860276566       13.9309398233
  C         9.2117869076       10.8837720099        0.8167969826
  C         7.5361261189        3.9534707772        4.5037260825
  C         4.7621328487        1.9814195427        2.8701870657
  C         3.0864945030        0.9860236468        6.5571265180
  C         5.8605079876       10.8837760047        8.1906106969
  C         4.1848701116        3.9534801098       11.8775497537
  C         1.4108761519        1.9814289200       10.2440111019
  C        -0.2647841779        6.9209273995       13.9309398105
  C         9.2117869095        4.9488721965        0.8167971136
  C         7.5361262116        9.8883707065        4.5037260466
  C         4.7621327382        7.9163196385        2.8701870255
  C         3.0864945553        6.9209234181        6.5571266810
  C         5.8605078003        4.9488760759        8.1906105942
  C         4.1848703165        9.8883804157       11.8775496254
  C         1.4108761254        7.9163289391       10.2440111613
  C        15.3180089159        0.6357002584        0.0852962612
  C        -6.3675978710       11.2338512934       14.6659641240
  C        -1.3412198105        3.6028437898        3.6048653770
  C        13.6395959224        2.3320155832        3.7688997056
  C        11.9639313038        0.6354244534        7.4558705484
  C        -3.0169286217       11.2343751650        7.2918664994
  C        -4.6925935421        3.6028843624       10.9788375797
  C        10.2882232270        2.3320553186       11.1428707506
  C        15.3151868657        6.5703043716        0.0820310312
  C        -6.3681840681        5.2994953313       14.6657058481
  C        -1.3412202182        9.5377441688        3.6048657494
  C        13.6395959651        8.2669156344        3.7688997552
  C        11.9639313648        6.5703243512        7.4558705010
  C        -3.0169285753        5.2994754328        7.2918665324
  C        -4.6925936217        9.5377844764       10.9788376046
  C        10.2882226480        8.2669556217       11.1428712634
  C         7.4903035444        0.6354884899        0.0831072835
  C         1.4566990756       11.2343110579       14.6646296411
  C         6.4836537347        3.6029304502        3.6037975132
  C         5.8147125986        2.3319282331        3.7699743123
  C         4.1390565391        0.6355138083        7.4569378449
  C         4.8079461016       11.2342858958        7.2907992295
  C         3.1322895958        3.6029715941       10.9777630716
  C         2.4633492070        2.3319687326       11.1439390928
  C         7.4903035915        6.5703883640        0.0831072602
  C         1.4566991389        5.2994113497       14.6646296515
  C         6.4836537714        9.5378305677        3.6037975159
  C         5.8147126806        8.2668282402        3.7699743222
  C         4.1390566353        6.5704136442        7.4569378360
  C         4.8079461363        5.2993861757        7.2907992130
  C         3.1322897018        9.5378717581       10.9777631214
  C         2.4633493080        8.2668687447       11.1439391148
  C         0.0698945627        1.5143354156        1.1355911646
  C         8.8806094870       10.3544500157       13.6152559203
  C        13.9048815280        4.4801579003        2.5534100634
  C        -1.6065549834        1.4547619162        4.8204424139
  C        -3.2821900560        1.5127145234        8.5073637949
  C        12.2291924300       10.3570849505        6.2403734282
  C        10.5535580140        4.4801373965        9.9272943454
  C        -4.9578785150        1.4547416730       12.1943262510
  C         0.0690551614        7.4475814664        1.1335361767
  C         8.8779477521        4.4222183991       13.6142005932
  C        13.9048808123       10.4150582266        2.5534109148
  C        -1.6065550458        7.3896619553        4.8204423201
  C        -3.2821901292        7.4476143456        8.5073636026
  C        12.2291925630        4.4221851723        6.2403736340
  C        10.5535579734       10.4150374774        9.9272942956
  C        -4.9578798487        7.3896423690       12.1943276930
  C         7.9001178311        1.5125580737        1.1335220180
  C         1.0468849821       10.3572416472       13.6142148566
  C         6.0738104311        4.4800368596        2.5534319134
  C         6.2245028829        1.4548860120        4.8204318615
  C         4.5488760923        1.5125925287        8.5073462125
  C         4.3981263660       10.3572068571        6.2403911796
  C         2.7225000274        4.4800133207        9.9273049838
  C         2.8731918297        1.4548631234       12.1943053943
  C         7.9001178178        7.4474578707        1.1335219496
  C         1.0468850562        4.4223418956       13.6142149393
  C         6.0738105941       10.4149368448        2.5534320018
  C         6.2245029391        7.3897859952        4.8204318319
  C         4.5488761030        7.4474924338        8.5073461795
  C         4.3981263076        4.4223070539        6.2403911476
  C         2.7225000623       10.4149133058        9.9273049801
  C         2.8731919108        7.3897630041       12.1943054153
  C         1.0983796250        1.1402340002        1.9943805031
  C         7.8525880689       10.7256638767       12.7549554652
  C        12.8763934785        4.1077951988        1.6933745456
  C        -0.5781282086        1.8271117483        5.6805812177
  C        -2.2537840573        1.1403298733        9.3674982467
  C        11.2007866750       10.7294697279        5.3802388421
  C         9.5251307764        4.1077880197        9.0671559180
  C        -3.9293904792        1.8271044479       13.0543622280
  C         1.0975640639        7.0752536418        1.9935761650
  C         7.8494384949        4.7945459073       12.7541609321
  C        12.8763932216       10.0426951103        1.6933747370
  C        -0.5781282981        7.7620116908        5.6805812020
  C        -2.2537839992        7.0752296713        9.3674981819
  C        11.2007866324        4.7945699142        5.3802389349
  C         9.5251307628       10.0426879321        9.0671559207
  C        -3.9293910300        7.7620046312       13.0543626858
  C         8.9285537843        1.1393861652        1.9942092149
  C         0.0184488452       10.7304134546       12.7535278226
  C         5.0453994040        4.1068291611        1.6927449696
  C         7.2528676639        1.8280745507        5.6812072230
  C         5.5772160465        1.1393683510        9.3681215086
  C         3.3697866492       10.7304311692        5.3796158670
  C         1.6941349967        4.1068252452        9.0665298965
  C         3.9016040524        1.8280701659       13.0549916753
  C         8.9285538430        7.0742859527        1.9942092076
  C         0.0184488026        4.7955136506       12.7535278583
  C         5.0453993564       10.0417289885        1.6927450033
  C         7.2528675862        7.7629744146        5.6812072117
  C         5.5772160908        7.0742683211        9.3681211685
  C         3.3697866110        4.7955313214        5.3796158983
  C         1.6941349416       10.0417250697        9.0665298531
  C         3.9016033991        7.7629704094       13.0549919740
  H         6.3859645482        0.3951904782       12.2358569572
  H         2.5715468363       11.4710643510        2.5208464687
  H         0.8956961296        3.3661643151        6.2075597207
  H        11.4026215161        2.5687457637        1.1663082228
  H         9.7269773707        0.3987114136        4.8532693396
  H        -0.7799746412       11.4710882428        9.8944676953
  H        -2.4556187135        3.3661541157       13.5814288795
  H         8.0513065437        2.5687354124        8.5401772495
  H         6.3756518608        6.3336068656       12.2270845891
  H         2.5713507091        5.5361926772        2.5206523908
  H         0.8956962141        9.3010641587        6.2075597606
  H        11.4026213138        8.5036455849        1.1663081314
  H         9.7269771565        6.3336111608        4.8532692897
  H        -0.7799744930        5.5361884248        9.8944677106
  H        -2.4556187706        9.3010538557       13.5814288573
  H         8.0513064768        8.5036352750        8.5401772575
  H        -1.4541978116        0.4008768815       12.2265346458
  H        10.4012004291       11.4689227743        2.5212023575
  H         8.7255445249        3.3683338957        6.2081105385
  H         3.5727714454        2.5665759465        1.1657589029
  H         1.8971285395        0.4008810627        4.8527190653
  H         7.0498742148       11.4689187992        9.8950186140
  H         5.3742311450        3.3683237610       13.5819781040
  H         0.2214582177        2.5665658507        8.5396264638
  H        -1.4541979154        6.3357766598       12.2265345978
  H        10.4012004651        5.5340229235        2.5212023689
  H         8.7255445346        9.3032336848        6.2081105456
  H         3.5727712562        8.5014757963        1.1657587731
  H         1.8971285556        6.3357807737        4.8527191394
  H         7.0498740866        5.5340188510        9.8950178470
  H         5.3742310803        9.3032235201       13.5819781255
  H         0.2214580718        8.5014656957        8.5396264092
  H         7.0605509340        1.9587812757       14.0622593621
  H         1.8854183257        9.9130386225        0.6857435446
  H         0.2096199970        4.9238467992        4.3727801284
  H        12.0886728236        1.0110260124        3.0010740476
  H        10.4130284101        1.9564186751        6.6879977042
  H        -1.4660257768        9.9133811695        8.0597392839
  H        -3.1416700198        4.9238737290       11.7466630942
  H         8.7373824160        1.0110526803       10.3749570425
  H         7.0617283904        7.8913016880       14.0619017163
  H         1.8852743038        3.9784977072        0.6858353398
  H         0.2096200318       10.8587465598        4.3727801427
  H        12.0886727980        6.9459262159        3.0010739255
  H        10.4130283559        7.8913182969        6.6879975639
  H        -1.4660257003        3.9784812254        8.0597394221
  H        -3.1416701112       10.8587735492       11.7466630049
  H         8.7373826368        6.9459528538       10.3749569118
  H        -0.7645834508        1.9570872923       14.0617049327
  H         9.7115861352        9.9127124155        0.6860321035
  H         8.0359309242        4.9245312006        4.3729771481
  H         4.2623604717        1.0103392806        3.0008773706
  H         2.5867167816        1.9571047279        6.6878008540
  H         6.3602858219        9.9126951360        8.0599360974
  H         4.6846423740        4.9245605626       11.7468597371
  H         0.9110716808        1.0103683701       10.3747598764
  H        -0.7645834541        7.8919869226       14.0617048888
  H         9.7115861600        3.9778124551        0.6860321455
  H         8.0359308726       10.8594309555        4.3729771237
  H         4.2623604533        6.9452394240        3.0008772960
  H         2.5867169025        7.8920043116        6.6878008727
  H         6.3602857659        3.9777951851        8.0599360980
  H         4.6846434980       10.8594605652       11.7468604201
  H         0.9110716801        6.9452684744       10.3747598327
  H        -0.4433756223        2.4804990501        1.2498758567
  H         9.3914141101        9.3876532117       13.4978293654
  H        14.4166027214        5.4468728950        2.4370098532
  H        -2.1182910815        0.4880539221        4.9368773198
  H        -3.7939349989        2.4794056528        8.6238445426
  H        12.7409375703        9.3903939319        6.1238927552
  H        11.0652939171        5.4468456067        9.8108594480
  H        -5.4695998792        0.4880266184       12.3107271195
  H        -0.4426577123        8.4143129800        1.2498918643
  H         9.3896605373        3.4554868239       13.4978448902
  H        14.4166026469       11.3817727799        2.4370101069
  H        -2.1182911140        6.4229538943        4.9368773308
  H        -3.7939350495        8.4143054707        8.6238444017
  H        12.7409376016        3.4554941518        6.1238929467
  H        11.0652939062       11.3817456606        9.8108593980
  H        -5.4696001447        6.4229268587       12.3107274507
  H         7.3843676327        2.4776558973        1.2504929006
  H         1.5626351157        9.3921437285       13.4972438255
  H         6.5895757118        5.4451141429        2.4364072642
  H         5.7087321202        0.4898106338        4.9374797733
  H         4.0330899372        2.4776473199        8.6244483315
  H         4.9139126330        9.3921521972        6.1232888905
  H         3.2382706011        5.4450889385        9.8102569234
  H         2.3574267601        0.4897857638       12.3113298615
  H         7.3843676324        8.4125556930        1.2504928574
  H         1.5626350957        3.4572439714       13.4972439193
  H         6.5895758330       11.3800140782        2.4364073450
  H         5.7087321666        6.4247105287        4.9374798392
  H         4.0330900017        8.4125471866        8.6244483983
  H         4.9139125544        3.4572524265        6.1232889212
  H         3.2382706575       11.3799888702        9.8102569468
  H         2.3574268315        6.4246855473       12.3113300222
  H         1.3967335538        1.8213218798        2.8062607817
  H         7.5499274169       10.0480663362       11.9408058546
  H        12.5772260931        4.7883582034        0.8809917577
  H        -0.2789399909        1.1465292549        6.4929258006
  H        -1.9545867242        1.8209161613       10.1798447960
  H        10.9015893387       10.0488833647        4.5678922579
  H         9.2259426022        4.7883705484        8.2548112350
  H        -3.6302234009        1.1465416520       13.8667450745
  H         1.3967218138        7.7558123877        2.8059574535
  H         7.5502806138        4.1139871769       11.9417796815
  H        12.5772260877       10.7232579748        0.8809918848
  H        -0.2789400301        7.0814291460        6.4929257580
  H        -1.9545866861        7.7558160000       10.1798446147
  H        10.9015892715        4.1139836162        4.5678924383
  H         9.2259425267       10.7232704277        8.2548112520
  H        -3.6302234093        7.0814414318       13.8667451001
  H         9.2254859902        1.8204462560        2.8070627321
  H        -0.2784834354       10.0493532630       11.9406744321
  H         4.7484622780        4.7878920862        0.8798866871
  H         7.5498241831        1.1469958735        6.4940303973
  H         5.8741772702        1.8204499387       10.1809493130
  H         3.0728254465       10.0493496920        4.5667878160
  H         1.3971784911        4.7879039743        8.2537066290
  H         4.1985405090        1.1470076404       13.8678502562
  H         9.2254860255        7.7553460885        2.8070626715
  H        -0.2784835000        4.1144535212       11.9406744913
  H         4.7484622724       10.7227918462        0.8798868021
  H         7.5498241840        7.0818956565        6.4940304090
  H         5.8741772740        7.7553497709       10.1809492567
  H         3.0728254028        4.1144498795        4.5667878083
  H         1.3971784483       10.7228038009        8.2537066531
  H         4.1985405052        7.0819074519       13.8678502348
     288
 i =        3, E =      -985.8161513228
  C         7.1981135720        0.1119727270       12.9227765330
  C         1.7636229058       11.7561937079        1.8453242852
  C         0.0871052890        3.0815003372        5.5312011058
  C        12.2111147131        2.8534448541        1.8428031529
  C        10.5354923699        0.1140211318        5.5297014434
  C        -1.5884885599       11.7557802434        9.2180284059
  C        -3.2641134602        3.0814550496       12.9049348055
  C         8.8598895908        2.8533978359        9.2165382463
  C         7.1842121384        6.0489316341       12.9034919351
  C         1.7627866875        5.8208692118        1.8442334364
  C         0.0871066425        9.0163992426        5.5312009224
  C        12.2111217236        8.7883436833        1.8427989263
  C        10.5354898850        6.0489183648        5.5297094106
  C        -1.5884873716        5.8208809739        9.2180279074
  C        -3.2640989898        9.0163387184       12.9049246482
  C         8.8598816411        8.7883051637        9.2165421558
  C        -0.6465944460        0.1139646668       12.9055727515
  C         9.5936046587       11.7558348199        1.8421690895
  C         7.9179257499        3.0814305286        5.5291343989
  C         4.3802896887        2.8535185565        1.8448791027
  C         2.7046452807        0.1139386967        5.5317793012
  C         6.2422712180       11.7558367590        9.2160220181
  C         4.5667087213        3.0813482696       12.9028311436
  C         1.0290759695        2.8534694258        9.2186038699
  C        -0.6466023359        6.0488642468       12.9055700192
  C         9.5936049241        5.8209354724        1.8421685018
  C         7.9179246158        9.0163304986        5.5291351759
  C         4.3803077452        8.7884085211        1.8448672399
  C         2.7046854676        6.0488558314        5.5317703215
  C         6.2423234560        5.8209414534        9.2159685194
  C         4.5667010260        9.0162889482       12.9028269124
  C         1.0290750226        8.7883667776        9.2186045769
  C         7.5649930189        0.9882848827       13.9385752896
  C         1.3903387559       10.8844903898        0.8219459463
  C        -0.2870691856        3.9523891183        4.5071949640
  C        12.5854259779        1.9824536574        2.8666650165
  C        10.9097364499        0.9849519459        6.5536325981
  C        -1.9627367378       10.8848445650        8.1941028015
  C        -3.6384155163        3.9524445826       11.8810695110
  C         9.2340713724        1.9825058289       10.2405481491
  C         7.5584737462        6.9198762997       13.9274281600
  C         1.3885520299        4.9499107888        0.8203018941
  C        -0.2870772677        9.8872998665        4.5072049253
  C        12.5854170992        7.9173551410        2.8666670860
  C        10.9097354057        6.9198511722        6.5536366153
  C        -1.9627351500        4.9499467333        8.1941015973
  C        -3.6384260457        9.8873451895       11.8810845416
  C         9.2340524608        7.9174202876       10.2405615134
  C        -0.2729373798        0.9840600786       13.9312044468
  C         9.2199424710       10.8857410429        0.8165368035
  C         7.5443075777        3.9514710685        4.5034468592
  C         4.7540528267        1.9833488658        2.8703913954
  C         3.0783527821        0.9840288907        6.5573788114
  C         5.8686724599       10.8857791802        8.1903506821
  C         4.1930041459        3.9515313303       11.8773058834
  C         1.4027018767        1.9834343287       10.2442954552
  C        -0.2729386038        6.9189584105       13.9312015537
  C         9.2199424519        4.9508442891        0.8165346786
  C         7.5443087381        9.8863667859        4.5034437282
  C         4.7540148791        7.9182762208        2.8704302478
  C         3.0783438930        6.9189362282        6.5573928280
  C         5.8686584427        4.9508641601        8.1903452442
  C         4.1930572107        9.8865236232       11.8773021408
  C         1.4026977398        7.9183250671       10.2442939761
  C        15.3233431093        0.6391440772        0.0850308256
  C        -6.3675514642       11.2299301202       14.6706135665
  C        -1.3431372477        3.6062133853        3.6078062053
  C        13.6414983650        2.3286446083        3.7660129847
  C        11.9658269003        0.6387878100        7.4529777604
  C        -3.0188259021       11.2310115785        7.2947577640
  C        -4.6944909555        3.6062466055       10.9817249114
  C        10.2900890588        2.3287072277       11.1399937832
  C        15.3170783626        6.5736635978        0.0791368052
  C        -6.3700623422        5.2961432225       14.6686145999
  C        -1.3431087357        9.5410983500        3.6077767323
  C        13.6415009686        8.2635407084        3.7660047684
  C        11.9658266315        6.5736868659        7.4529787023
  C        -3.0188247439        5.2961126711        7.2947575640
  C        -4.6944771603        9.5411452687       10.9817163413
  C        10.2901372281        8.2635854661       11.1399447656
  C         7.4925145360        0.6391657824        0.0787493107
  C         1.4544933749       11.2306352244       14.6689878171
  C         6.4814492418        3.6065922661        3.6081554207
  C         5.8168750461        2.3282672172        3.7656700631
  C         4.1412499907        0.6391730895        7.4526062571
  C         4.8057525015       11.2306088583        7.2951342633
  C         3.1301048179        3.6066556897       10.9820978058
  C         2.4655682889        2.3283058179       11.1395892840
  C         7.4925113603        6.5740649072        0.0787502969
  C         1.4544912081        5.2957356944       14.6689863442
  C         6.4814427860        9.5414918644        3.6081603811
  C         5.8168932491        8.2631532200        3.7656593778
  C         4.1412387782        6.5740739050        7.4526184673
  C         4.8057638383        5.2957259544        7.2951184566
  C         3.1301573423        9.5415516066       10.9820930214
  C         2.4655605491        8.2632233066       11.1395860411
  C         0.0758289553        1.5167728406        1.1389371453
  C         8.8802811687       10.3497385896       13.6162057074
  C        13.9014047610        4.4830641567        2.5520503814
  C        -1.6030540840        1.4518237780        4.8218239382
  C        -3.2787145100        1.5156309157        8.5087641429
  C        12.2257151512       10.3541667073        6.2389738475
  C        10.5500476756        4.4830764104        9.9259220324
  C        -4.9544009126        1.4518339556       12.1957188352
  C         0.0725590458        7.4505141553        1.1348918416
  C         8.8744344476        4.4192915426       13.6128660379
  C        13.9014066184       10.4179675732        2.5520405001
  C        -1.6030499154        7.3867223378        4.8218200857
  C        -3.2787139083        7.4505291256        8.5087638921
  C        12.2257144727        4.4192681972        6.2389748259
  C        10.5500458666       10.4179812888        9.9259239571
  C        -4.9543880343        7.3867207855       12.1956883578
  C         7.9010784369        1.5140638504        1.1359427594
  C         1.0459286366       10.3557364044       13.6117944974
  C         6.0728727034        4.4815237917        2.5509997088
  C         6.2254814180        1.4533622655        4.8228645568
  C         4.5498249550        1.5140715803        8.5098163026
  C         4.3971702397       10.3557047733        6.2379350574
  C         2.7215286285        4.4815356743        9.9248696104
  C         2.8741225201        1.4533923089       12.1967703733
  C         7.9010765590        7.4489610447        1.1359450378
  C         1.0459269380        4.4208384339       13.6117916461
  C         6.0728715953       10.4164140113        2.5509951753
  C         6.2254771231        7.3882641815        4.8228723456
  C         4.5498258021        7.4489990167        8.5097985485
  C         4.3971735913        4.4208050899        6.2379361000
  C         2.7215249341       10.4164334174        9.9248814838
  C         2.8741337115        7.3882788714       12.1967404947
  C         1.1021980426        1.1448539548        2.0069692593
  C         7.8530065882       10.7226048823       12.7505725297
  C        12.8741703913        4.1115221992        1.6833963762
  C        -0.5759028126        1.8233985145        5.6905913109
  C        -2.2514941627        1.1440826437        9.3774443440
  C        11.1984947649       10.7257165814        5.3702955958
  C         9.5228969647        4.1115044844        9.0571477609
  C        -3.9271355947        1.8233609811       13.0643342377
  C         1.0997492075        7.0789570858        2.0036032556
  C         7.8472403156        4.7908323441       12.7441425246
  C        12.8741473939       10.0464373771        1.6834121116
  C        -0.5758926391        7.7582897416        5.6905865402
  C        -2.2514943111        7.0789815985        9.3774440800
  C        11.1984963914        4.7908181815        5.3702948218
  C         9.5228898558       10.0464133731        9.0571537737
  C        -3.9271198856        7.7582482839       13.0643017323
  C         8.9316972565        1.1447371921        2.0027353757
  C         0.0153076387       10.7250601711       12.7450030828
  C         5.0422049178        4.1122095132        1.6842815614
  C         7.2560454374        1.8227152378        5.6897281505
  C         5.5805268442        1.1448333733        9.3765448010
  C         3.3665535608       10.7250458047        5.3711474007
  C         1.6909588437        4.1121844102        9.0580102663
  C         3.9048522132        1.8226350352       13.0634397242
  C         8.9316973649        7.0796369422        2.0027358558
  C         0.0153051631        4.7901622904       12.7450004548
  C         5.0422145967       10.0471021692        1.6842670328
  C         7.2560451423        7.7576162420        5.6897302449
  C         5.5804526159        7.0796578713        9.3765707900
  C         3.3665524479        4.7901388061        5.3711540216
  C         1.6909607965       10.0470804001        9.0580110821
  C         3.9048086485        7.7575805149       13.0634579782
  H         6.3845007517        0.3936234099       12.2336870006
  H         2.5791919394       11.4721218776        2.5286541306
  H         0.9029888657        3.3648476300        6.2151427171
  H        11.3953117979        2.5700859204        1.1587682796
  H         9.7196584801        0.3973856106        4.8457112102
  H        -0.7726474951       11.4724140670        9.9020075656
  H        -2.4483235660        3.3648131039       13.5889817384
  H         8.0440084874        2.5700483389        8.5325928019
  H         6.3683801266        6.3322835379       12.2194850593
  H         2.5786133566        5.5375208162        2.5282457900
  H         0.9029877920        9.2997528671        6.2151441477
  H        11.3953231611        8.5049867464        1.1587603725