 Entering Gaussian System, Link 0=g09
 Input=population.com
 Output=population.log
 Initial command:
 /share/apps/gaussian/g09_D01/g09/l1.exe "/tmp/4002387.1.chemistry.q/Gau-9742.inp" -scrdir="/tmp/4002387.1.chemistry.q/"
 Entering Link 1 = /share/apps/gaussian/g09_D01/g09/l1.exe PID=      9743.
  
 Copyright (c) 1988,1990,1992,1993,1995,1998,2003,2009,2013,
            Gaussian, Inc.  All Rights Reserved.
  
 This is part of the Gaussian(R) 09 program.  It is based on
 the Gaussian(R) 03 system (copyright 2003, Gaussian, Inc.),
 the Gaussian(R) 98 system (copyright 1998, Gaussian, Inc.),
 the Gaussian(R) 94 system (copyright 1995, Gaussian, Inc.),
 the Gaussian 92(TM) system (copyright 1992, Gaussian, Inc.),
 the Gaussian 90(TM) system (copyright 1990, Gaussian, Inc.),
 the Gaussian 88(TM) system (copyright 1988, Gaussian, Inc.),
 the Gaussian 86(TM) system (copyright 1986, Carnegie Mellon
 University), and the Gaussian 82(TM) system (copyright 1983,
 Carnegie Mellon University). Gaussian is a federally registered
 trademark of Gaussian, Inc.
  
 This software contains proprietary and confidential information,
 including trade secrets, belonging to Gaussian, Inc.
  
 This software is provided under written license and may be
 used, copied, transmitted, or stored only in accord with that
 written license.
  
 The following legend is applicable only to US Government
 contracts under FAR:
  
                    RESTRICTED RIGHTS LEGEND
  
 Use, reproduction and disclosure by the US Government is
 subject to restrictions as set forth in subparagraphs (a)
 and (c) of the Commercial Computer Software - Restricted
 Rights clause in FAR 52.227-19.
  
 Gaussian, Inc.
 340 Quinnipiac St., Bldg. 40, Wallingford CT 06492
  
  
 ---------------------------------------------------------------
 Warning -- This program may not be used in any manner that
 competes with the business of Gaussian, Inc. or will provide
 assistance to any competitor of Gaussian, Inc.  The licensee
 of this program is prohibited from giving any competitor of
 Gaussian, Inc. access to this program.  By using this program,
 the user acknowledges that Gaussian, Inc. is engaged in the
 business of creating and licensing software in the field of
 computational chemistry and represents and warrants to the
 licensee that it is not a competitor of Gaussian, Inc. and that
 it will not use this program in any manner prohibited above.
 ---------------------------------------------------------------
  

 Cite this work as:
 Gaussian 09, Revision D.01,
 M. J. Frisch, G. W. Trucks, H. B. Schlegel, G. E. Scuseria, 
 M. A. Robb, J. R. Cheeseman, G. Scalmani, V. Barone, B. Mennucci, 
 G. A. Petersson, H. Nakatsuji, M. Caricato, X. Li, H. P. Hratchian, 
 A. F. Izmaylov, J. Bloino, G. Zheng, J. L. Sonnenberg, M. Hada, 
 M. Ehara, K. Toyota, R. Fukuda, J. Hasegawa, M. Ishida, T. Nakajima, 
 Y. Honda, O. Kitao, H. Nakai, T. Vreven, J. A. Montgomery, Jr., 
 J. E. Peralta, F. Ogliaro, M. Bearpark, J. J. Heyd, E. Brothers, 
 K. N. Kudin, V. N. Staroverov, T. Keith, R. Kobayashi, J. Normand, 
 K. Raghavachari, A. Rendell, J. C. Burant, S. S. Iyengar, J. Tomasi, 
 M. Cossi, N. Rega, J. M. Millam, M. Klene, J. E. Knox, J. B. Cross, 
 V. Bakken, C. Adamo, J. Jaramillo, R. Gomperts, R. E. Stratmann, 
 O. Yazyev, A. J. Austin, R. Cammi, C. Pomelli, J. W. Ochterski, 
 R. L. Martin, K. Morokuma, V. G. Zakrzewski, G. A. Voth, 
 P. Salvador, J. J. Dannenberg, S. Dapprich, A. D. Daniels, 
 O. Farkas, J. B. Foresman, J. V. Ortiz, J. Cioslowski, 
 and D. J. Fox, Gaussian, Inc., Wallingford CT, 2013.
 
 ******************************************
 Gaussian 09:  ES64L-G09RevD.01 24-Apr-2013
                19-May-2017 
 ******************************************
 %chk=population.chk
 %mem=28GB
 %nproc=5
 Will use up to    5 processors via shared memory.
 ---------------------------------------------------------------
 #wb97xd 6-311++g** Pop=ESP td(nstates=1,root=1) density=current
 ---------------------------------------------------------------
 1/30=1,38=1/1;
 2/12=2,17=6,18=5,40=1/2;
 3/5=4,6=6,7=1111,11=9,16=1,25=1,30=1,71=1,74=-58/1,2,8,3;
 4//1;
 5/5=2,38=5/2;
 8/6=1,10=2,107=1,108=1/1;
 9/8=1,15=1,41=1,42=1,70=2/14;
 10/5=4,13=10/2;
 6/7=2,8=2,9=2,10=2,15=8,22=-1/1,2;
 99/5=1,9=1/99;
 ----------
 population
 ----------
 Symbolic Z-matrix:
 Charge =  0 Multiplicity = 1
 C                     1.62118   0.87634   0.1606 
 C                     0.29897   0.55956   0.76108 
 C                     2.54605   1.6558    0.89626 
 C                     2.00229   0.43597  -1.11665 
 C                    -0.66021  -0.24982   0.03372 
 O                     0.03072   0.99398   1.89577 
 C                     3.79632   1.96148   0.34337 
 O                     2.28388   2.12512   2.11652 
 C                     3.23521   0.74032  -1.65746 
 H                     1.31675  -0.16062  -1.70479 
 C                    -1.84968  -0.53139   0.63167 
 H                    -0.42772  -0.62494  -0.95079 
 C                     4.13433   1.50984  -0.91484 
 H                     4.47891   2.55975   0.93498 
 H                     1.37263   1.81957   2.34091 
 H                     3.50096   0.38634  -2.64614 
 H                    -2.01042  -0.14061   1.63238 
 N                    -2.86598  -1.24054   0.11465 
 H                     5.10656   1.75547  -1.32829 
 C                    -2.74703  -1.8325   -1.20147 
 C                    -4.02101  -1.59439   0.91632 
 H                    -2.50253  -1.06691  -1.94381 
 H                    -3.69704  -2.28938  -1.47779 
 H                    -1.9662   -2.60212  -1.22438 
 H                    -4.01054  -1.02369   1.84464 
 H                    -4.02211  -2.66186   1.16485 
 H                    -4.94431  -1.36079   0.37868 
 
                          Input orientation:                          
 ---------------------------------------------------------------------
 Center     Atomic      Atomic             Coordinates (Angstroms)
 Number     Number       Type             X           Y           Z
 ---------------------------------------------------------------------
      1          6           0        1.621183    0.876343    0.160604
      2          6           0        0.298969    0.559559    0.761084
      3          6           0        2.546049    1.655798    0.896262
      4          6           0        2.002293    0.435974   -1.116653
      5          6           0       -0.660210   -0.249822    0.033719
      6          8           0        0.030718    0.993980    1.895766
      7          6           0        3.796319    1.961477    0.343366
      8          8           0        2.283883    2.125122    2.116517
      9          6           0        3.235213    0.740322   -1.657462
     10          1           0        1.316750   -0.160618   -1.704785
     11          6           0       -1.849675   -0.531385    0.631670
     12          1           0       -0.427720   -0.624943   -0.950786
     13          6           0        4.134329    1.509843   -0.914837
     14          1           0        4.478909    2.559753    0.934981
     15          1           0        1.372633    1.819565    2.340906
     16          1           0        3.500958    0.386343   -2.646137
     17          1           0       -2.010422   -0.140611    1.632378
     18          7           0       -2.865980   -1.240541    0.114645
     19          1           0        5.106562    1.755469   -1.328286
     20          6           0       -2.747029   -1.832502   -1.201471
     21          6           0       -4.021008   -1.594385    0.916322
     22          1           0       -2.502534   -1.066913   -1.943808
     23          1           0       -3.697036   -2.289379   -1.477786
     24          1           0       -1.966197   -2.602116   -1.224383
     25          1           0       -4.010536   -1.023689    1.844638
     26          1           0       -4.022113   -2.661859    1.164854
     27          1           0       -4.944309   -1.360788    0.378680
 ---------------------------------------------------------------------
                    Distance matrix (angstroms):
                    1          2          3          4          5
     1  C    0.000000
     2  C    1.486330   0.000000
     3  C    1.415669   2.503873   0.000000
     4  C    1.403765   2.538205   2.415671   0.000000
     5  C    2.547371   1.450580   3.828246   2.980368   0.000000
     6  O    2.356736   1.244260   2.786378   3.643233   2.343426
     7  C    2.437649   3.790952   1.400824   2.770802   4.984614
     8  O    2.413341   2.868461   1.333424   3.658675   4.318112
     9  C    2.434945   3.808355   2.799027   1.380288   4.360596
    10  H    2.155839   2.763158   3.402350   1.082493   2.634146
    11  C    3.774978   2.413209   4.916927   4.339363   1.360754
    12  H    2.772553   2.204908   4.178118   2.656693   1.078896
    13  C    2.806029   4.292055   2.413300   2.395726   5.194592
    14  H    3.405896   4.637124   2.134147   3.853994   5.925920
    15  H    2.388548   2.288276   1.868347   3.776971   3.706471
    16  H    3.413422   4.678877   3.882262   2.141911   4.990156
    17  H    4.048317   2.565673   4.952815   4.898112   2.095402
    18  N    4.961647   3.697992   6.187872   5.294042   2.419400
    19  H    3.890697   5.376674   3.393343   3.379695   6.255550
    20  C    5.317365   4.341852   6.677230   5.263956   2.895753
    21  C    6.205637   4.829676   7.327369   6.673492   3.725829
    22  H    5.020940   4.220222   6.400574   4.820407   2.823545
    23  H    6.402310   5.394167   7.757360   6.327742   3.958125
    24  H    5.185283   4.366835   6.556472   4.999051   2.970136
    25  H    6.177568   4.717266   7.146179   6.859590   3.886256
    26  H    6.736036   5.404842   7.864799   7.148098   4.289497
    27  H    6.939596   5.596957   8.091548   7.329369   4.439228
                    6          7          8          9         10
     6  O    0.000000
     7  C    4.186376   0.000000
     8  O    2.530803   2.336302   0.000000
     9  C    4.791509   2.410264   4.131055   0.000000
    10  H    3.993863   3.853112   4.556567   2.120008   0.000000
    11  C    2.731402   6.178570   5.133040   5.719567   3.952561
    12  H    3.306650   5.119268   4.931936   3.972457   1.956346
    13  C    5.000523   1.378876   3.604418   1.397163   3.369452
    14  H    4.812604   1.083454   2.530429   3.402627   4.936399
    15  H    1.637216   3.143972   0.986961   4.541026   4.504649
    16  H    5.748102   3.391963   5.214163   1.083236   2.440507
    17  H    2.350090   6.308611   4.879446   6.254261   4.712444
    18  N    4.068948   7.395368   6.469642   6.654978   4.687408
    19  H    6.061235   2.133916   4.468873   2.154258   4.263310
    20  C    5.029687   7.719858   7.209848   6.527984   4.422988
    21  C    4.906672   8.607150   7.418009   8.045369   6.116989
    22  H    5.040533   7.353765   7.041670   6.022444   3.932611
    23  H    6.004786   8.805495   8.257011   7.567526   5.451716
    24  H    5.162839   7.516037   7.181335   6.197912   4.119398
    25  H    4.517227   8.491880   7.043340   8.238769   6.459355
    26  H    5.506799   9.120195   7.974110   8.497593   6.557019
    27  H    5.709411   9.350790   8.210871   8.687066   6.706869
                   11         12         13         14         15
    11  C    0.000000
    12  H    2.129525   0.000000
    13  C    6.508963   5.036953   0.000000
    14  H    7.049688   6.146008   2.154733   0.000000
    15  H    4.339553   4.477960   4.280509   3.489048   0.000000
    16  H    6.341571   4.396752   2.158891   4.301686   5.608430
    17  H    1.086260   3.067941   6.853486   7.063267   3.973583
    18  N    1.342793   2.731157   7.591362   8.310390   5.682106
    19  H    7.580261   6.036319   1.084670   2.482579   5.235390
    20  C    2.420445   2.626830   7.655489   8.721841   6.546575
    21  C    2.434273   4.163848   8.916215   9.460750   6.540325
    22  H    2.710369   2.342282   7.193497   8.377391   6.458130
    23  H    3.309545   3.706279   8.722458   9.807222   7.560911
    24  H    2.783242   2.520115   7.363453   8.535053   6.588652
    25  H    2.526455   4.561794   8.965061   9.259547   6.108100
    26  H    3.089125   4.641618   9.394454   9.979251   7.111227
    27  H    3.213825   4.765346   9.609130  10.221406   7.339532
                   16         17         18         19         20
    16  H    0.000000
    17  H    6.997048   0.000000
    18  N    7.127873   2.060422   0.000000
    19  H    2.487811   7.938017   8.638261   0.000000
    20  C    6.785844   3.381684   1.448008   8.635306   0.000000
    21  C    8.555371   2.582373   1.449821   9.978593   2.482895
    22  H    6.216682   3.726837   2.097491   8.138983   1.094061
    23  H    7.767603   4.139443   2.080036   9.689504   1.089771
    24  H    6.390779   3.771213   2.111040   8.308024   1.096599
    25  H    8.864412   2.196665   2.085644  10.045528   3.395498
    26  H    8.967262   3.259167   2.111807  10.443239   2.813035
    27  H    9.139175   3.415887   2.098482  10.660431   2.747259
                   21         22         23         24         25
    21  C    0.000000
    22  H    3.280904   0.000000
    23  H    2.513907   1.771563   0.000000
    24  H    3.133750   1.778223   1.777026   0.000000
    25  H    1.089759   4.077777   3.569139   4.011190   0.000000
    26  H    1.096025   3.810086   2.688487   3.152588   1.773652
    27  H    1.093669   3.382688   2.421660   3.602757   1.770480
                   26         27
    26  H    0.000000
    27  H    1.778005   0.000000
 Stoichiometry    C11H13NO2
 Framework group  C1[X(C11H13NO2)]
 Deg. of freedom    75
 Full point group                 C1      NOp   1
 Largest Abelian subgroup         C1      NOp   1
 Largest concise Abelian subgroup C1      NOp   1
                         Standard orientation:                         
 ---------------------------------------------------------------------
 Center     Atomic      Atomic             Coordinates (Angstroms)
 Number     Number       Type             X           Y           Z
 ---------------------------------------------------------------------
      1          6           0       -1.345540    0.035991   -0.008478
      2          6           0       -0.000735   -0.596643   -0.029749
      3          6           0       -2.497094   -0.787331    0.005092
      4          6           0       -1.532236    1.427272   -0.002195
      5          6           0        1.194731    0.224967   -0.028811
      6          8           0        0.083150   -1.837998   -0.043295
      7          6           0       -3.770996   -0.205058    0.026072
      8          8           0       -2.431631   -2.119133   -0.000844
      9          6           0       -2.789595    1.996341    0.017843
     10          1           0       -0.671627    2.083785   -0.013733
     11          6           0        2.404314   -0.398376   -0.027765
     12          1           0        1.121419    1.301321   -0.018653
     13          6           0       -3.913470    1.166424    0.032231
     14          1           0       -4.629566   -0.865832    0.036436
     15          1           0       -1.472023   -2.349183   -0.018781
     16          1           0       -2.902062    3.073715    0.021988
     17          1           0        2.406353   -1.484571   -0.016062
     18          7           0        3.613715    0.184728   -0.048563
     19          1           0       -4.907074    1.601159    0.048557
     20          6           0        3.727777    1.628181   -0.035930
     21          6           0        4.827001   -0.593534    0.107084
     22          1           0        3.166873    2.062821   -0.868663
     23          1           0        4.775688    1.907334   -0.143424
     24          1           0        3.344887    2.051097    0.900588
     25          1           0        4.596330   -1.654048    0.008717
     26          1           0        5.284304   -0.427192    1.089160
     27          1           0        5.553407   -0.325846   -0.665437
 ---------------------------------------------------------------------
 Rotational constants (GHZ):      1.6252525      0.3210431      0.2690904
 Standard basis: 6-311++G(d,p) (5D, 7F)
 There are   413 symmetry adapted cartesian basis functions of A   symmetry.
 There are   399 symmetry adapted basis functions of A   symmetry.
   399 basis functions,   621 primitive gaussians,   413 cartesian basis functions
    51 alpha electrons       51 beta electrons
       nuclear repulsion energy       837.9860421903 Hartrees.
 NAtoms=   27 NActive=   27 NUniq=   27 SFac= 1.00D+00 NAtFMM=   60 NAOKFM=F Big=F
 Integral buffers will be    131072 words long.
 Raffenetti 1 integral format.
 Two-electron integral symmetry is turned on.
 Nuclear repulsion after empirical dispersion term =      837.9711274964 Hartrees.
 One-electron integrals computed using PRISM.
 NBasis=   399 RedAO= T EigKep=  1.62D-06  NBF=   399
 NBsUse=   396 1.00D-06 EigRej=  7.53D-07 NBFU=   396
 ExpMin= 3.60D-02 ExpMax= 8.59D+03 ExpMxC= 1.30D+03 IAcc=3 IRadAn=         5 AccDes= 0.00D+00
 Harris functional with IExCor= 4639 and IRadAn=       5 diagonalized for initial guess.
 HarFok:  IExCor= 4639 AccDes= 0.00D+00 IRadAn=         5 IDoV= 1 UseB2=F ITyADJ=14
 ICtDFT=  3500011 ScaDFX=  1.000000  1.000000  1.000000  1.000000
 FoFCou: FMM=F IPFlag=           0 FMFlag=      100000 FMFlg1=           0
         NFxFlg=           0 DoJE=T BraDBF=F KetDBF=T FulRan=T
         wScrn=  0.000000 ICntrl=     500 IOpCl=  0 I1Cent=   200000004 NGrid=           0
         NMat0=    1 NMatS0=      1 NMatT0=    0 NMatD0=    1 NMtDS0=    0 NMtDT0=    0
 Petite list used in FoFCou.
 Requested convergence on RMS density matrix=1.00D-08 within 128 cycles.
 Requested convergence on MAX density matrix=1.00D-06.
 Requested convergence on             energy=1.00D-06.
 No special actions if energy rises.
 SCF Done:  E(RwB97XD) =  -632.152645809     A.U. after   17 cycles
            NFock= 17  Conv=0.45D-08     -V/T= 2.0040
 DoSCS=F DFT=T ScalE2(SS,OS)=  1.000000  1.000000
 ExpMin= 3.60D-02 ExpMax= 8.59D+03 ExpMxC= 1.30D+03 IAcc=3 IRadAn=         5 AccDes= 0.00D+00
 HarFok:  IExCor=  205 AccDes= 0.00D+00 IRadAn=         5 IDoV=-2 UseB2=F ITyADJ=14
 ICtDFT= 12500011 ScaDFX=  1.000000  1.000000  1.000000  1.000000
 Range of M.O.s used for correlation:    15   396
 NBasis=   399 NAE=    51 NBE=    51 NFC=    14 NFV=     0
 NROrb=    382 NOA=    37 NOB=    37 NVA=   345 NVB=   345

 **** Warning!!: The largest alpha MO coefficient is  0.14197916D+03

 Would need an additional         15385000000 words for in-memory AO integral storage.
 Orbital symmetries:
       Occupied  (A) (A) (A) (A) (A) (A) (A) (A) (A) (A) (A) (A)
                 (A) (A) (A) (A) (A) (A) (A) (A) (A) (A) (A) (A)
                 (A) (A) (A) (A) (A) (A) (A) (A) (A) (A) (A) (A)
                 (A) (A) (A) (A) (A) (A) (A) (A) (A) (A) (A) (A)
                 (A) (A) (A)
       Virtual   (A) (A) (A) (A) (A) (A) (A) (A) (A) (A) (A) (A)
                 (A) (A) (A) (A) (A) (A) (A) (A) (A) (A) (A) (A)
                 (A) (A) (A) (A) (A) (A) (A) (A) (A) (A) (A) (A)
                 (A) (A) (A) (A) (A) (A) (A) (A) (A) (A) (A) (A)
                 (A) (A) (A) (A) (A) (A) (A) (A) (A) (A) (A) (A)
                 (A) (A) (A) (A) (A) (A) (A) (A) (A) (A) (A) (A)
                 (A) (A) (A) (A) (A) (A) (A) (A) (A) (A) (A) (A)
                 (A) (A) (A) (A) (A) (A) (A) (A) (A) (A) (A) (A)
                 (A) (A) (A) (A) (A) (A) (A) (A) (A) (A) (A) (A)
                 (A) (A) (A) (A) (A) (A) (A) (A) (A) (A) (A) (A)
                 (A) (A) (A) (A) (A) (A) (A) (A) (A) (A) (A) (A)
                 (A) (A) (A) (A) (A) (A) (A) (A) (A) (A) (A) (A)
                 (A) (A) (A) (A) (A) (A) (A) (A) (A) (A) (A) (A)
                 (A) (A) (A) (A) (A) (A) (A) (A) (A) (A) (A) (A)
                 (A) (A) (A) (A) (A) (A) (A) (A) (A) (A) (A) (A)
                 (A) (A) (A) (A) (A) (A) (A) (A) (A) (A) (A) (A)
                 (A) (A) (A) (A) (A) (A) (A) (A) (A) (A) (A) (A)
                 (A) (A) (A) (A) (A) (A) (A) (A) (A) (A) (A) (A)
                 (A) (A) (A) (A) (A) (A) (A) (A) (A) (A) (A) (A)
                 (A) (A) (A) (A) (A) (A) (A) (A) (A) (A) (A) (A)
                 (A) (A) (A) (A) (A) (A) (A) (A) (A) (A) (A) (A)
                 (A) (A) (A) (A) (A) (A) (A) (A) (A) (A) (A) (A)
                 (A) (A) (A) (A) (A) (A) (A) (A) (A) (A) (A) (A)
                 (A) (A) (A) (A) (A) (A) (A) (A) (A) (A) (A) (A)
                 (A) (A) (A) (A) (A) (A) (A) (A) (A) (A) (A) (A)
                 (A) (A) (A) (A) (A) (A) (A) (A) (A) (A) (A) (A)
                 (A) (A) (A) (A) (A) (A) (A) (A) (A) (A) (A) (A)
                 (A) (A) (A) (A) (A) (A) (A) (A) (A) (A) (A) (A)
                 (A) (A) (A) (A) (A) (A) (A) (A) (A)
     8 initial guesses have been made.
 Convergence on wavefunction:    0.000001000000000
 Iteration     1 Dimension     8 NMult     0 NNew      8
 CISAX will form     8 AO SS matrices at one time.
 New state      1 was old state      8
 Iteration     2 Dimension    12 NMult     8 NNew      4
 New state      1 was old state      2
 Iteration     3 Dimension    16 NMult    12 NNew      4
 Iteration     4 Dimension    20 NMult    16 NNew      4
 Iteration     5 Dimension    24 NMult    20 NNew      4
 Iteration     6 Dimension    28 NMult    24 NNew      4
 Iteration     7 Dimension    32 NMult    28 NNew      4
 Iteration     8 Dimension    36 NMult    32 NNew      4
 Iteration     9 Dimension    40 NMult    36 NNew      4
 Iteration    10 Dimension    44 NMult    40 NNew      4
 Iteration    11 Dimension    48 NMult    44 NNew      4
 Iteration    12 Dimension    52 NMult    48 NNew      4
 Iteration    13 Dimension    56 NMult    52 NNew      4
 ***********************************************************************
 Excited states from <AA,BB:AA,BB> singles matrix:
 ***********************************************************************
 
 Ground to excited state transition densities written to RWF  633
 Ground to excited state transition electric dipole moments (Au):
       state          X           Y           Z        Dip. S.      Osc.
         1        -2.2482     -0.2576     -0.0169      5.1210      0.5220
 Ground to excited state transition velocity dipole moments (Au):
       state          X           Y           Z        Dip. S.      Osc.
         1         0.3425      0.0435      0.0027      0.1192      0.5199
 Ground to excited state transition magnetic dipole moments (Au):
       state          X           Y           Z
         1         0.0168     -0.1280     -0.4387
 Ground to excited state transition velocity quadrupole moments (Au):
       state          XX          YY          ZZ          XY          XZ          YZ
         1         0.1225     -0.1446      0.0456     -0.0093      0.0423     -0.0051
 <0|del|b> * <b|rxdel|0> + <0|del|b> * <b|delr+rdel|0>
 Rotatory Strengths (R) in cgs (10**-40 erg-esu-cm/Gauss)
       state          XX          YY          ZZ    R(velocity)    E-M Angle
         1       -19.8716      6.5563      8.7292     -1.5287       90.36
 1/2[<0|r|b>*<b|rxdel|0> + (<0|rxdel|b>*<b|r|0>)*]
 Rotatory Strengths (R) in cgs (10**-40 erg-esu-cm/Gauss)
       state          XX          YY          ZZ     R(length)
         1        26.6335    -23.3234     -5.2406     -0.6435
  1/2[<0|del|b>*<b|r|0> + (<0|r|b>*<b|del|0>)*] (Au)
       state          X           Y           Z        Dip. S.   Osc.(frdel)
         1        -0.7701     -0.0112      0.0000      0.7813      0.5209

 Excitation energies and oscillator strengths:
 
 Excited State   1:      Singlet-A      4.1603 eV  298.02 nm  f=0.5220  <S**2>=0.000
      51 -> 52         0.66808
 This state for optimization and/or second-order correction.
 Total Energy, E(TD-HF/TD-KS) =  -631.999758956    
 Copying the excited state density for this state as the 1-particle RhoCI density.
 SavETr:  write IOETrn=   770 NScale= 10 NData=  16 NLR=1 NState=    1 LETran=      28.
          Differentiating once with respect to electric field.
                with respect to dipole field.
          Electric field/nuclear overlap derivatives assumed to be zero.
          There are     1 degrees of freedom in the 1st order CPHF.  IDoFFX=0 NUNeed=     1.
 LinEq1:  Iter=  0 NonCon=     1 RMS=4.49D-03 Max=3.38D-01 NDo=     1
 AX will form     1 AO Fock derivatives at one time.
 LinEq1:  Iter=  1 NonCon=     1 RMS=1.71D-03 Max=8.80D-02 NDo=     1
 LinEq1:  Iter=  2 NonCon=     1 RMS=1.18D-03 Max=7.55D-02 NDo=     1
 LinEq1:  Iter=  3 NonCon=     1 RMS=4.05D-04 Max=1.48D-02 NDo=     1
 LinEq1:  Iter=  4 NonCon=     1 RMS=2.84D-04 Max=9.09D-03 NDo=     1
 LinEq1:  Iter=  5 NonCon=     1 RMS=1.34D-04 Max=4.41D-03 NDo=     1
 LinEq1:  Iter=  6 NonCon=     1 RMS=7.20D-05 Max=3.22D-03 NDo=     1
 LinEq1:  Iter=  7 NonCon=     1 RMS=2.85D-05 Max=1.06D-03 NDo=     1
 LinEq1:  Iter=  8 NonCon=     1 RMS=1.55D-05 Max=5.89D-04 NDo=     1
 LinEq1:  Iter=  9 NonCon=     1 RMS=7.00D-06 Max=1.51D-04 NDo=     1
 LinEq1:  Iter= 10 NonCon=     1 RMS=3.00D-06 Max=1.25D-04 NDo=     1
 LinEq1:  Iter= 11 NonCon=     1 RMS=1.31D-06 Max=3.61D-05 NDo=     1
 LinEq1:  Iter= 12 NonCon=     1 RMS=6.72D-07 Max=2.39D-05 NDo=     1
 LinEq1:  Iter= 13 NonCon=     1 RMS=2.90D-07 Max=1.19D-05 NDo=     1
 LinEq1:  Iter= 14 NonCon=     1 RMS=1.03D-07 Max=2.21D-06 NDo=     1
 LinEq1:  Iter= 15 NonCon=     1 RMS=5.10D-08 Max=1.79D-06 NDo=     1
 LinEq1:  Iter= 16 NonCon=     1 RMS=1.87D-08 Max=6.47D-07 NDo=     1
 LinEq1:  Iter= 17 NonCon=     1 RMS=8.26D-09 Max=2.53D-07 NDo=     1
 LinEq1:  Iter= 18 NonCon=     1 RMS=4.06D-09 Max=2.45D-07 NDo=     1
 LinEq1:  Iter= 19 NonCon=     1 RMS=1.47D-09 Max=4.85D-08 NDo=     1
 LinEq1:  Iter= 20 NonCon=     1 RMS=6.79D-10 Max=2.36D-08 NDo=     1
 LinEq1:  Iter= 21 NonCon=     1 RMS=2.17D-10 Max=6.79D-09 NDo=     1
 LinEq1:  Iter= 22 NonCon=     1 RMS=7.24D-11 Max=1.05D-09 NDo=     1
 LinEq1:  Iter= 23 NonCon=     0 RMS=3.42D-11 Max=9.10D-10 NDo=     1
 Linear equations converged to 1.000D-10 1.000D-09 after    23 iterations.
 End of Minotr F.D. properties file   721 does not exist.
 End of Minotr F.D. properties file   722 does not exist.
 End of Minotr F.D. properties file   788 does not exist.

 **********************************************************************

            Population analysis using the CI density.

 **********************************************************************

 Orbital symmetries:
       Occupied  (A) (A) (A) (A) (A) (A) (A) (A) (A) (A) (A) (A)
                 (A) (A) (A) (A) (A) (A) (A) (A) (A) (A) (A) (A)
                 (A) (A) (A) (A) (A) (A) (A) (A) (A) (A) (A) (A)
                 (A) (A) (A) (A) (A) (A) (A) (A) (A) (A) (A) (A)
                 (A) (A) (A)
       Virtual   (A) (A) (A) (A) (A) (A) (A) (A) (A) (A) (A) (A)
                 (A) (A) (A) (A) (A) (A) (A) (A) (A) (A) (A) (A)
                 (A) (A) (A) (A) (A) (A) (A) (A) (A) (A) (A) (A)
                 (A) (A) (A) (A) (A) (A) (A) (A) (A) (A) (A) (A)
                 (A) (A) (A) (A) (A) (A) (A) (A) (A) (A) (A) (A)
                 (A) (A) (A) (A) (A) (A) (A) (A) (A) (A) (A) (A)
                 (A) (A) (A) (A) (A) (A) (A) (A) (A) (A) (A) (A)
                 (A) (A) (A) (A) (A) (A) (A) (A) (A) (A) (A) (A)
                 (A) (A) (A) (A) (A) (A) (A) (A) (A) (A) (A) (A)
                 (A) (A) (A) (A) (A) (A) (A) (A) (A) (A) (A) (A)
                 (A) (A) (A) (A) (A) (A) (A) (A) (A) (A) (A) (A)
                 (A) (A) (A) (A) (A) (A) (A) (A) (A) (A) (A) (A)
                 (A) (A) (A) (A) (A) (A) (A) (A) (A) (A) (A) (A)
                 (A) (A) (A) (A) (A) (A) (A) (A) (A) (A) (A) (A)
                 (A) (A) (A) (A) (A) (A) (A) (A) (A) (A) (A) (A)
                 (A) (A) (A) (A) (A) (A) (A) (A) (A) (A) (A) (A)
                 (A) (A) (A) (A) (A) (A) (A) (A) (A) (A) (A) (A)
                 (A) (A) (A) (A) (A) (A) (A) (A) (A) (A) (A) (A)
                 (A) (A) (A) (A) (A) (A) (A) (A) (A) (A) (A) (A)
                 (A) (A) (A) (A) (A) (A) (A) (A) (A) (A) (A) (A)
                 (A) (A) (A) (A) (A) (A) (A) (A) (A) (A) (A) (A)
                 (A) (A) (A) (A) (A) (A) (A) (A) (A) (A) (A) (A)
                 (A) (A) (A) (A) (A) (A) (A) (A) (A) (A) (A) (A)
                 (A) (A) (A) (A) (A) (A) (A) (A) (A) (A) (A) (A)
                 (A) (A) (A) (A) (A) (A) (A) (A) (A) (A) (A) (A)
                 (A) (A) (A) (A) (A) (A) (A) (A) (A) (A) (A) (A)
                 (A) (A) (A) (A) (A) (A) (A) (A) (A) (A) (A) (A)
                 (A) (A) (A) (A) (A) (A) (A) (A) (A) (A) (A) (A)
                 (A) (A) (A) (A) (A) (A) (A) (A) (A)
 The electronic state is 1-A.
 Alpha  occ. eigenvalues --  -19.25112 -19.22152 -14.48987 -10.37251 -10.35072
 Alpha  occ. eigenvalues --  -10.34493 -10.33911 -10.33642 -10.29459 -10.29214
 Alpha  occ. eigenvalues --  -10.29102 -10.27957 -10.27740 -10.27276  -1.16166
 Alpha  occ. eigenvalues --   -1.12609  -1.08747  -0.95675  -0.89352  -0.86237
 Alpha  occ. eigenvalues --   -0.85246  -0.83764  -0.80032  -0.73716  -0.70095
 Alpha  occ. eigenvalues --   -0.68819  -0.65136  -0.63087  -0.60380  -0.59082
 Alpha  occ. eigenvalues --   -0.58461  -0.58085  -0.55370  -0.53247  -0.51921
 Alpha  occ. eigenvalues --   -0.51703  -0.51468  -0.51344  -0.50371  -0.49499
 Alpha  occ. eigenvalues --   -0.47010  -0.46766  -0.46631  -0.45414  -0.42265
 Alpha  occ. eigenvalues --   -0.42212  -0.41613  -0.33716  -0.33500  -0.30045
 Alpha  occ. eigenvalues --   -0.28778
 Alpha virt. eigenvalues --    0.00355   0.02725   0.04161   0.04949   0.05726
 Alpha virt. eigenvalues --    0.05912   0.06107   0.06489   0.07648   0.08011
 Alpha virt. eigenvalues --    0.08143   0.08292   0.08518   0.09972   0.10494
 Alpha virt. eigenvalues --    0.11900   0.11983   0.12904   0.13105   0.13476
 Alpha virt. eigenvalues --    0.14164   0.14671   0.15047   0.15322   0.15983
 Alpha virt. eigenvalues --    0.16328   0.16392   0.16673   0.17026   0.17499
 Alpha virt. eigenvalues --    0.17752   0.17841   0.18411   0.18900   0.19235
 Alpha virt. eigenvalues --    0.19696   0.20113   0.20275   0.21151   0.21669
 Alpha virt. eigenvalues --    0.21875   0.22142   0.22189   0.23247   0.23416
 Alpha virt. eigenvalues --    0.24067   0.24196   0.24603   0.25423   0.25992
 Alpha virt. eigenvalues --    0.26314   0.26523   0.26766   0.27659   0.27931
 Alpha virt. eigenvalues --    0.28392   0.28774   0.29035   0.29892   0.30204
 Alpha virt. eigenvalues --    0.30940   0.31244   0.32200   0.32604   0.32974
 Alpha virt. eigenvalues --    0.33565   0.34109   0.34598   0.35333   0.35785
 Alpha virt. eigenvalues --    0.36213   0.36975   0.37209   0.37748   0.38457
 Alpha virt. eigenvalues --    0.38862   0.39345   0.39632   0.40263   0.40785
 Alpha virt. eigenvalues --    0.41130   0.41989   0.42976   0.43468   0.43788
 Alpha virt. eigenvalues --    0.44440   0.45834   0.46592   0.47588   0.48450
 Alpha virt. eigenvalues --    0.50112   0.51343   0.51383   0.52118   0.53092
 Alpha virt. eigenvalues --    0.55324   0.57428   0.58625   0.60423   0.61221
 Alpha virt. eigenvalues --    0.62156   0.62849   0.63171   0.63841   0.64381
 Alpha virt. eigenvalues --    0.65164   0.65955   0.66320   0.67115   0.67604
 Alpha virt. eigenvalues --    0.68994   0.69463   0.70259   0.70545   0.70841
 Alpha virt. eigenvalues --    0.71069   0.72065   0.72190   0.74022   0.74381
 Alpha virt. eigenvalues --    0.75684   0.76053   0.76583   0.77917   0.78880
 Alpha virt. eigenvalues --    0.80148   0.80413   0.80803   0.82732   0.83570
 Alpha virt. eigenvalues --    0.85934   0.87106   0.87682   0.88215   0.89526
 Alpha virt. eigenvalues --    0.91523   0.94260   0.94801   0.95055   0.95916
 Alpha virt. eigenvalues --    0.96389   0.97993   0.98424   0.99487   1.00552
 Alpha virt. eigenvalues --    1.01936   1.02689   1.04311   1.04891   1.05697
 Alpha virt. eigenvalues --    1.08498   1.08692   1.09891   1.11523   1.12009
 Alpha virt. eigenvalues --    1.14462   1.14700   1.15510   1.16554   1.18046
 Alpha virt. eigenvalues --    1.18339   1.18526   1.20025   1.21806   1.22251
 Alpha virt. eigenvalues --    1.22746   1.28334   1.32202   1.32995   1.33681
 Alpha virt. eigenvalues --    1.34776   1.36995   1.38399   1.40763   1.42733
 Alpha virt. eigenvalues --    1.45517   1.46891   1.50614   1.51573   1.52581
 Alpha virt. eigenvalues --    1.53749   1.55987   1.57786   1.58853   1.59578
 Alpha virt. eigenvalues --    1.61098   1.61917   1.62953   1.64406   1.65107
 Alpha virt. eigenvalues --    1.65611   1.66033   1.66510   1.68082   1.69975
 Alpha virt. eigenvalues --    1.71852   1.73174   1.73471   1.75510   1.75848
 Alpha virt. eigenvalues --    1.77040   1.77860   1.80765   1.81525   1.82174
 Alpha virt. eigenvalues --    1.82769   1.83413   1.84432   1.86109   1.87413
 Alpha virt. eigenvalues --    1.89667   1.91593   1.91749   1.96750   1.99042
 Alpha virt. eigenvalues --    1.99616   2.00814   2.02229   2.02595   2.03404
 Alpha virt. eigenvalues --    2.05071   2.05748   2.06475   2.07346   2.08266
 Alpha virt. eigenvalues --    2.10148   2.11763   2.12687   2.14567   2.15977
 Alpha virt. eigenvalues --    2.18103   2.19380   2.21956   2.24346   2.25268
 Alpha virt. eigenvalues --    2.26454   2.31321   2.32591   2.36046   2.38120
 Alpha virt. eigenvalues --    2.40390   2.43084   2.46153   2.46754   2.49224
 Alpha virt. eigenvalues --    2.50840   2.52326   2.54893   2.55745   2.57895
 Alpha virt. eigenvalues --    2.58309   2.59139   2.62200   2.62673   2.64174
 Alpha virt. eigenvalues --    2.67020   2.70217   2.71288   2.71890   2.74406
 Alpha virt. eigenvalues --    2.76318   2.77105   2.80276   2.80758   2.82029
 Alpha virt. eigenvalues --    2.83015   2.84152   2.84725   2.86241   2.86833
 Alpha virt. eigenvalues --    2.88184   2.89199   2.90664   2.91280   2.92554
 Alpha virt. eigenvalues --    2.95164   2.95462   2.96573   2.98751   2.99240
 Alpha virt. eigenvalues --    3.02904   3.04782   3.08560   3.10745   3.13697
 Alpha virt. eigenvalues --    3.17871   3.19537   3.22763   3.23800   3.25470
 Alpha virt. eigenvalues --    3.27255   3.30468   3.31813   3.31996   3.38105
 Alpha virt. eigenvalues --    3.43422   3.47361   3.51628   3.57460   3.61520
 Alpha virt. eigenvalues --    3.63822   3.65217   3.68699   3.70093   3.72654
 Alpha virt. eigenvalues --    3.75826   3.80394   3.82195   3.83481   3.85052
 Alpha virt. eigenvalues --    3.90022   3.93152   3.94860   4.04184   4.08974
 Alpha virt. eigenvalues --    4.12934   4.15190   4.18643   4.29837   4.30894
 Alpha virt. eigenvalues --    4.40421   4.64346   4.95309   4.98728   5.14493
 Alpha virt. eigenvalues --    5.18010   5.18994   5.43994   5.63048   5.90578
 Alpha virt. eigenvalues --    5.94910  23.73979  23.94999  24.03818  24.04821
 Alpha virt. eigenvalues --   24.06811  24.07572  24.09616  24.17394  24.25631
 Alpha virt. eigenvalues --   24.30454  24.34375  35.70561  50.14383  50.20284
          Condensed to atoms (all electrons):
               1          2          3          4          5          6
     1  C   17.149000   1.359080   1.102849  -3.033317  -4.522631  -0.194060
     2  C    1.359080  14.536043  -4.307313   0.538470   1.127247   0.794371
     3  C    1.102849  -4.307313  16.741864  -3.819558  -3.337902  -0.082575
     4  C   -3.033317   0.538470  -3.819558  14.726036  -1.769662  -0.228116
     5  C   -4.522631   1.127247  -3.337902  -1.769662  12.575432  -0.236659
     6  O   -0.194060   0.794371  -0.082575  -0.228116  -0.236659   8.282753
     7  C   -2.650276  -0.829761   0.258391   1.376655  -0.079189  -0.053871
     8  O    0.146748  -0.085381   0.363000  -0.021248  -0.063422  -0.018168
     9  C   -1.533787  -0.401585   0.429343   0.903301  -0.441106   0.003970
    10  H   -0.073424   0.030204   0.025148   0.724073  -0.130516  -0.001770
    11  C   -2.943662  -4.704205  -1.523808  -1.838136   3.321879   0.067304
    12  H   -0.193798  -0.077666  -0.020036  -0.090038   0.635356  -0.010572
    13  C   -0.275492  -0.969475  -0.119001   0.455589  -0.692698  -0.032135
    14  H   -0.090367   0.005650  -0.091677   0.007935   0.007513   0.001370
    15  H   -0.166066   0.065575   0.000361   0.023943   0.020342   0.094665
    16  H    0.028941  -0.001005   0.030403  -0.073991   0.009108   0.000696
    17  H   -0.051821   0.155731  -0.065401   0.044208   0.048216   0.011911
    18  N   -0.015996   0.002037   0.001440  -0.003678  -0.198797   0.000792
    19  H    0.082082  -0.007194   0.033661  -0.049563  -0.011974  -0.000412
    20  C   -0.184959  -0.302749  -0.021229  -0.042689   0.120315  -0.001732
    21  C    0.001920  -0.141402  -0.004773  -0.014314  -0.072895   0.001434
    22  H   -0.006973  -0.028575  -0.001130  -0.001506  -0.051145   0.001120
    23  H   -0.003817  -0.019487   0.000884  -0.006502   0.020606   0.000115
    24  H    0.002420   0.010060  -0.001140   0.004659   0.003666   0.000492
    25  H    0.004841  -0.000230   0.003358  -0.003314   0.003277  -0.000037
    26  H   -0.000543   0.004191  -0.000229   0.000654   0.019521   0.000085
    27  H    0.000974   0.001895  -0.000223   0.000436   0.005542   0.000116
               7          8          9         10         11         12
     1  C   -2.650276   0.146748  -1.533787  -0.073424  -2.943662  -0.193798
     2  C   -0.829761  -0.085381  -0.401585   0.030204  -4.704205  -0.077666
     3  C    0.258391   0.363000   0.429343   0.025148  -1.523808  -0.020036
     4  C    1.376655  -0.021248   0.903301   0.724073  -1.838136  -0.090038
     5  C   -0.079189  -0.063422  -0.441106  -0.130516   3.321879   0.635356
     6  O   -0.053871  -0.018168   0.003970  -0.001770   0.067304  -0.010572
     7  C    8.407911  -0.388028  -0.238210   0.044008  -0.233089   0.017617
     8  O   -0.388028   8.051097   0.008707  -0.003062  -0.001120  -0.001111
     9  C   -0.238210   0.008707   7.132426  -0.068248   0.100525  -0.086090
    10  H    0.044008  -0.003062  -0.068248   0.587754  -0.171625  -0.018666
    11  C   -0.233089  -0.001120   0.100525  -0.171625  12.941335   0.067972
    12  H    0.017617  -0.001111  -0.086090  -0.018666   0.067972   0.660369
    13  C    0.326564   0.024462   0.403929   0.043848  -0.221850  -0.020561
    14  H    0.546572  -0.026649   0.002944  -0.000798   0.001357   0.000901
    15  H    0.056268   0.231858   0.014071   0.001653  -0.003306  -0.000978
    16  H    0.021400   0.000342   0.363713  -0.020580   0.007608   0.003253
    17  H   -0.004502  -0.000330   0.002603   0.001704   0.260517   0.001401
    18  N    0.000118  -0.000084   0.000961  -0.006110   0.054284  -0.029919
    19  H   -0.101335   0.000611  -0.044555   0.002199  -0.002350  -0.001435
    20  C    0.004180  -0.000163  -0.006374  -0.004865   0.195126   0.030767
    21  C   -0.000870   0.000277   0.001203  -0.002399  -0.043154  -0.006198
    22  H   -0.000974   0.000018   0.002535  -0.005717   0.038224   0.014889
    23  H    0.000196  -0.000009  -0.000423  -0.000676   0.026811   0.003755
    24  H   -0.000681   0.000032   0.000497   0.000576   0.013441  -0.013681
    25  H    0.000134  -0.000096  -0.000278   0.000578   0.057459  -0.003335
    26  H    0.000038   0.000004  -0.000037   0.000087  -0.024330  -0.000458
    27  H   -0.000007   0.000002   0.000009  -0.000093  -0.002131   0.000886
              13         14         15         16         17         18
     1  C   -0.275492  -0.090367  -0.166066   0.028941  -0.051821  -0.015996
     2  C   -0.969475   0.005650   0.065575  -0.001005   0.155731   0.002037
     3  C   -0.119001  -0.091677   0.000361   0.030403  -0.065401   0.001440
     4  C    0.455589   0.007935   0.023943  -0.073991   0.044208  -0.003678
     5  C   -0.692698   0.007513   0.020342   0.009108   0.048216  -0.198797
     6  O   -0.032135   0.001370   0.094665   0.000696   0.011911   0.000792
     7  C    0.326564   0.546572   0.056268   0.021400  -0.004502   0.000118
     8  O    0.024462  -0.026649   0.231858   0.000342  -0.000330  -0.000084
     9  C    0.403929   0.002944   0.014071   0.363713   0.002603   0.000961
    10  H    0.043848  -0.000798   0.001653  -0.020580   0.001704  -0.006110
    11  C   -0.221850   0.001357  -0.003306   0.007608   0.260517   0.054284
    12  H   -0.020561   0.000901  -0.000978   0.003253   0.001401  -0.029919
    13  C    7.224912  -0.053935  -0.011951  -0.075062  -0.000648   0.000282
    14  H   -0.053935   0.462915   0.002453   0.001831  -0.000234  -0.000007
    15  H   -0.011951   0.002453   0.298931   0.000383   0.001380   0.000061
    16  H   -0.075062   0.001831   0.000383   0.474895  -0.000205   0.000147
    17  H   -0.000648  -0.000234   0.001380  -0.000205   0.469029  -0.065833
    18  N    0.000282  -0.000007   0.000061   0.000147  -0.065833   6.934400
    19  H    0.443560  -0.012905  -0.000554  -0.010714   0.000042  -0.000011
    20  C   -0.005549   0.000054  -0.001237  -0.000078   0.003691   0.264007
    21  C   -0.000588   0.000013   0.000067   0.000091  -0.036992   0.276773
    22  H    0.000492  -0.000022  -0.000027   0.000087   0.004004  -0.047545
    23  H   -0.000201   0.000002  -0.000102  -0.000005  -0.001332  -0.050096
    24  H    0.000106  -0.000006   0.000080   0.000000  -0.003440  -0.070553
    25  H   -0.000015   0.000005   0.000021  -0.000005  -0.008283  -0.091011
    26  H   -0.000017   0.000001   0.000011   0.000001   0.003447  -0.058909
    27  H    0.000003   0.000000   0.000037   0.000003   0.000833  -0.053656
              19         20         21         22         23         24
     1  C    0.082082  -0.184959   0.001920  -0.006973  -0.003817   0.002420
     2  C   -0.007194  -0.302749  -0.141402  -0.028575  -0.019487   0.010060
     3  C    0.033661  -0.021229  -0.004773  -0.001130   0.000884  -0.001140
     4  C   -0.049563  -0.042689  -0.014314  -0.001506  -0.006502   0.004659
     5  C   -0.011974   0.120315  -0.072895  -0.051145   0.020606   0.003666
     6  O   -0.000412  -0.001732   0.001434   0.001120   0.000115   0.000492
     7  C   -0.101335   0.004180  -0.000870  -0.000974   0.000196  -0.000681
     8  O    0.000611  -0.000163   0.000277   0.000018  -0.000009   0.000032
     9  C   -0.044555  -0.006374   0.001203   0.002535  -0.000423   0.000497
    10  H    0.002199  -0.004865  -0.002399  -0.005717  -0.000676   0.000576
    11  C   -0.002350   0.195126  -0.043154   0.038224   0.026811   0.013441
    12  H   -0.001435   0.030767  -0.006198   0.014889   0.003755  -0.013681
    13  C    0.443560  -0.005549  -0.000588   0.000492  -0.000201   0.000106
    14  H   -0.012905   0.000054   0.000013  -0.000022   0.000002  -0.000006
    15  H   -0.000554  -0.001237   0.000067  -0.000027  -0.000102   0.000080
    16  H   -0.010714  -0.000078   0.000091   0.000087  -0.000005   0.000000
    17  H    0.000042   0.003691  -0.036992   0.004004  -0.001332  -0.003440
    18  N   -0.000011   0.264007   0.276773  -0.047545  -0.050096  -0.070553
    19  H    0.480217  -0.000111  -0.000001   0.000016  -0.000005   0.000012
    20  C   -0.000111   5.255325  -0.070799   0.417811   0.387995   0.396821
    21  C   -0.000001  -0.070799   5.199449   0.015105   0.006324  -0.011757
    22  H    0.000016   0.417811   0.015105   0.577293  -0.019158  -0.084450
    23  H   -0.000005   0.387995   0.006324  -0.019158   0.493516  -0.023604
    24  H    0.000012   0.396821  -0.011757  -0.084450  -0.023604   0.586430
    25  H    0.000000  -0.000406   0.414397  -0.002629   0.003907  -0.001216
    26  H    0.000000   0.007356   0.384305  -0.003325  -0.007705   0.010769
    27  H    0.000000  -0.013112   0.411485   0.001561  -0.003063   0.000341
              25         26         27
     1  C    0.004841  -0.000543   0.000974
     2  C   -0.000230   0.004191   0.001895
     3  C    0.003358  -0.000229  -0.000223
     4  C   -0.003314   0.000654   0.000436
     5  C    0.003277   0.019521   0.005542
     6  O   -0.000037   0.000085   0.000116
     7  C    0.000134   0.000038  -0.000007
     8  O   -0.000096   0.000004   0.000002
     9  C   -0.000278  -0.000037   0.000009
    10  H    0.000578   0.000087  -0.000093
    11  C    0.057459  -0.024330  -0.002131
    12  H   -0.003335  -0.000458   0.000886
    13  C   -0.000015  -0.000017   0.000003
    14  H    0.000005   0.000001   0.000000
    15  H    0.000021   0.000011   0.000037
    16  H   -0.000005   0.000001   0.000003
    17  H   -0.008283   0.003447   0.000833
    18  N   -0.091011  -0.058909  -0.053656
    19  H    0.000000   0.000000   0.000000
    20  C   -0.000406   0.007356  -0.013112
    21  C    0.414397   0.384305   0.411485
    22  H   -0.002629  -0.003325   0.001561
    23  H    0.003907  -0.007705  -0.003063
    24  H   -0.001216   0.010769   0.000341
    25  H    0.528063  -0.031691  -0.020477
    26  H   -0.031691   0.581689  -0.070323
    27  H   -0.020477  -0.070323   0.566210
 Mulliken charges:
               1
     1  C    2.062133
     2  C   -0.754525
     3  C    0.405290
     4  C   -1.810327
     5  C   -0.309426
     6  O   -0.401087
     7  C   -0.479258
     8  O   -0.218285
     9  C   -0.550047
    10  H    0.046715
    11  C    0.558923
    12  H    0.137375
    13  C   -0.444570
    14  H    0.235083
    15  H    0.372060
    16  H    0.238747
    17  H    0.230303
    18  N    0.156903
    19  H    0.200719
    20  C   -0.427395
    21  C   -0.306701
    22  H    0.180023
    23  H    0.192073
    24  H    0.180127
    25  H    0.146983
    26  H    0.185411
    27  H    0.172755
 Sum of Mulliken charges =   0.00000
 Mulliken charges with hydrogens summed into heavy atoms:
               1
     1  C    2.062133
     2  C   -0.754525
     3  C    0.405290
     4  C   -1.763612
     5  C   -0.172051
     6  O   -0.401087
     7  C   -0.244175
     8  O    0.153775
     9  C   -0.311301
    11  C    0.789226
    13  C   -0.243851
    18  N    0.156903
    20  C    0.124827
    21  C    0.198447
 Electronic spatial extent (au):  <R**2>=           3943.5481
 Charge=              0.0000 electrons
 Dipole moment (field-independent basis, Debye):
    X=              4.5494    Y=              3.8692    Z=              0.1162  Tot=              5.9734
 Quadrupole moment (field-independent basis, Debye-Ang):
   XX=            -56.7422   YY=            -82.9137   ZZ=            -88.2406
   XY=             -1.5405   XZ=              0.2414   YZ=             -0.2856
 Traceless Quadrupole moment (field-independent basis, Debye-Ang):
   XX=             19.2233   YY=             -6.9482   ZZ=            -12.2751
   XY=             -1.5405   XZ=              0.2414   YZ=             -0.2856
 Octapole moment (field-independent basis, Debye-Ang**2):
  XXX=             95.9359  YYY=             12.6208  ZZZ=             -0.0483  XYY=             12.4603
  XXY=              9.6333  XXZ=              1.1306  XZZ=             10.4519  YZZ=             -7.2706
  YYZ=             -0.2968  XYZ=             -1.0070
 Hexadecapole moment (field-independent basis, Debye-Ang**3):
 XXXX=          -3647.1910 YYYY=           -866.4814 ZZZZ=           -115.3819 XXXY=            -16.5559
 XXXZ=             -5.8211 YYYX=            -14.8280 YYYZ=             -0.7001 ZZZX=              2.1533
 ZZZY=             -0.2044 XXYY=           -819.5461 XXZZ=           -783.0670 YYZZ=           -177.2828
 XXYZ=             -2.5564 YYXZ=             -1.9076 ZZXY=             20.5459
 N-N= 8.379711274964D+02 E-N=-3.149761574273D+03  KE= 6.297737387705D+02
 Merz-Kollman atomic radii used.

 **********************************************************************

          Electrostatic Properties Using The CI Density

 **********************************************************************

       Atomic Center    1 is at  -1.345540  0.035991 -0.008478
       Atomic Center    2 is at  -0.000735 -0.596643 -0.029749
       Atomic Center    3 is at  -2.497094 -0.787331  0.005092
       Atomic Center    4 is at  -1.532236  1.427272 -0.002195
       Atomic Center    5 is at   1.194731  0.224967 -0.028811
       Atomic Center    6 is at   0.083150 -1.837998 -0.043295
       Atomic Center    7 is at  -3.770996 -0.205058  0.026072
       Atomic Center    8 is at  -2.431631 -2.119133 -0.000844
       Atomic Center    9 is at  -2.789595  1.996341  0.017843
       Atomic Center   10 is at  -0.671627  2.083785 -0.013733
       Atomic Center   11 is at   2.404314 -0.398376 -0.027765
       Atomic Center   12 is at   1.121419  1.301321 -0.018653
       Atomic Center   13 is at  -3.913470  1.166424  0.032231
       Atomic Center   14 is at  -4.629566 -0.865832  0.036436
       Atomic Center   15 is at  -1.472023 -2.349183 -0.018781
       Atomic Center   16 is at  -2.902062  3.073715  0.021988
       Atomic Center   17 is at   2.406353 -1.484571 -0.016062
       Atomic Center   18 is at   3.613715  0.184728 -0.048563
       Atomic Center   19 is at  -4.907074  1.601159  0.048557
       Atomic Center   20 is at   3.727777  1.628181 -0.035930
       Atomic Center   21 is at   4.827001 -0.593534  0.107084
       Atomic Center   22 is at   3.166873  2.062821 -0.868663
       Atomic Center   23 is at   4.775688  1.907334 -0.143424
       Atomic Center   24 is at   3.344887  2.051097  0.900588
       Atomic Center   25 is at   4.596330 -1.654048  0.008717
       Atomic Center   26 is at   5.284304 -0.427192  1.089160
       Atomic Center   27 is at   5.553407 -0.325846 -0.665437
    1112 points will be used for fitting atomic charges
 Fitting point charges to electrostatic potential
 Charges from ESP fit, RMS=   0.00128 RRMS=   0.06463:
 ESP charges:
               1
     1  C   -0.258046
     2  C    0.544792
     3  C    0.592762
     4  C   -0.193290
     5  C   -0.474736
     6  O   -0.697103
     7  C   -0.331316
     8  O   -0.588945
     9  C   -0.099051
    10  H    0.133661
    11  C   -0.069337
    12  H    0.203696
    13  C   -0.184379
    14  H    0.194553
    15  H    0.496949
    16  H    0.145291
    17  H    0.179580
    18  N    0.185577
    19  H    0.150604
    20  C   -0.344853
    21  C   -0.418123
    22  H    0.125032
    23  H    0.141137
    24  H    0.125880
    25  H    0.151294
    26  H    0.146909
    27  H    0.141463
 Sum of ESP charges =   0.00000
 ESP charges with hydrogens summed into heavy atoms:
               1
     1  C   -0.258046
     2  C    0.544792
     3  C    0.592762
     4  C   -0.059629
     5  C   -0.271040
     6  O   -0.697103
     7  C   -0.136763
     8  O   -0.091996
     9  C    0.046240
    11  C    0.110243
    13  C   -0.033775
    18  N    0.185577
    20  C    0.047196
    21  C    0.021543
 Charge=   0.00000 Dipole=     4.5312     3.8637     0.1413 Tot=     5.9565
 -----------------------------------------------------------------

              Electrostatic Properties (Atomic Units)

 -----------------------------------------------------------------
    Center     Electric         -------- Electric Field --------
               Potential          X             Y             Z
 -----------------------------------------------------------------
    1 Atom    -14.755786
    2 Atom    -14.731480
    3 Atom    -14.692680
    4 Atom    -14.774419
    5 Atom    -14.780663
    6 Atom    -22.429758
    7 Atom    -14.774198
    8 Atom    -22.327803
    9 Atom    -14.761690
   10 Atom     -1.103603
   11 Atom    -14.734073
   12 Atom     -1.097234
   13 Atom    -14.774108
   14 Atom     -1.101924
   15 Atom     -0.986321
   16 Atom     -1.096852
   17 Atom     -1.094535
   18 Atom    -18.331345
   19 Atom     -1.107055
   20 Atom    -14.720596
   21 Atom    -14.718697
   22 Atom     -1.086515
   23 Atom     -1.080642
   24 Atom     -1.087791
   25 Atom     -1.081861
   26 Atom     -1.088350
   27 Atom     -1.086536
 -----------------------------------------------------------------
 1\1\GINC-NXN32\SP\RwB97XD TD-FC\6-311++G(d,p)\C11H13N1O2\BTX156\19-May
 -2017\0\\#wb97xd 6-311++g** Pop=ESP td(nstates=1,root=1) density=curre
 nt\\population\\0,1\C,0,1.621183,0.876343,0.160604\C,0,0.298969,0.5595
 59,0.761084\C,0,2.546049,1.655798,0.896262\C,0,2.002293,0.435974,-1.11
 6653\C,0,-0.66021,-0.249822,0.033719\O,0,0.030718,0.99398,1.895766\C,0
 ,3.796319,1.961477,0.343366\O,0,2.283883,2.125122,2.116517\C,0,3.23521
 3,0.740322,-1.657462\H,0,1.31675,-0.160618,-1.704785\C,0,-1.849675,-0.
 531385,0.63167\H,0,-0.42772,-0.624943,-0.950786\C,0,4.134329,1.509843,
 -0.914837\H,0,4.478909,2.559753,0.934981\H,0,1.372633,1.819565,2.34090
 6\H,0,3.500958,0.386343,-2.646137\H,0,-2.010422,-0.140611,1.632378\N,0
 ,-2.86598,-1.240541,0.114645\H,0,5.106562,1.755469,-1.328286\C,0,-2.74
 7029,-1.832502,-1.201471\C,0,-4.021008,-1.594385,0.916322\H,0,-2.50253
 4,-1.066913,-1.943808\H,0,-3.697036,-2.289379,-1.477786\H,0,-1.966197,
 -2.602116,-1.224383\H,0,-4.010536,-1.023689,1.844638\H,0,-4.022113,-2.
 661859,1.164854\H,0,-4.944309,-1.360788,0.37868\\Version=ES64L-G09RevD
 .01\State=1-A\HF=-632.1526458\RMSD=4.521e-09\Dipole=-1.3745862,-1.3564
 344,-1.3392625\Quadrupole=10.3500785,-4.7678831,-5.5821953,8.595866,-1
 .9564035,0.5316421\PG=C01 [X(C11H13N1O2)]\\@


 THEORY:  SUPPOSITION WHICH HAS SCIENTIFIC BASIS,
          BUT NOT EXPERIMENTALLY PROVEN.
 FACT:    A THEORY WHICH HAS BEEN PROVEN BY ENOUGH 
          MONEY TO PAY FOR THE EXPERIMENTS.

                          --  THE WIZARD OF ID
 Job cpu time:       0 days  1 hours 38 minutes 23.7 seconds.
 File lengths (MBytes):  RWF=    156 Int=      0 D2E=      0 Chk=     18 Scr=      1
 Normal termination of Gaussian 09 at Fri May 19 10:35:24 2017.
