    #         X           Y           Z        CHARGE     MIN DIST    ATOMIC VOL
 --------------------------------------------------------------------------------
    1   9.3041770   6.5091640   8.5140900   2.9114571   0.0372375  50.3042205
    2   3.2586830  12.9266680  12.7343670   2.9114571   0.0372239  50.3042205
    3   8.4289930  16.2270820   2.1101400   2.9114568   0.0372301  50.3042205
    4   4.1338670   3.2087530  19.1383190   2.9114579   0.0372289  50.3042205
    5   6.9366000   5.4085190   8.0428580   4.0887957   0.8920103  94.4960312
    6   5.6262610  14.0273150  13.2055980   4.0887964   0.8920245  94.4960312
    7  10.7965710  15.1264350   2.5813690   4.0888366   0.8920338  94.5142772
    8   1.7662910   4.3093980  18.6670880   4.0887955   0.8920198  94.4960312
    9   6.5725840   3.9033250   5.9281900   4.1142594   0.9372081  88.8032794
   10   5.9902750  15.5325080  15.3202660   4.1141714   0.9372030  88.7850334
   11  11.1605870  13.6212420   4.6960370   4.1141714   0.9372008  88.7850334
   12   1.4022750   5.8145910  16.5524190   4.1142594   0.9372084  88.8032794
   13   8.5627340   3.4657760   4.2366440   3.9498762   0.7377921  81.8697996
   14   4.0001270  15.9700570  17.0118140   3.9498749   0.7378056  81.8697996
   15   9.1704370  13.1836920   6.3875850   3.9498762   0.7378130  81.8697996
   16   3.3924230   6.2521410  14.8608720   3.9498748   0.7378005  81.8697996
   17  10.8979370   4.5710290   4.6732850   4.0563407   0.8843096  82.4171796
   18   1.6649250  14.8648040  16.5751730   4.0563386   0.8842949  82.4171796
   19   6.8352340  14.2889450   5.9509440   4.0563391   0.8842845  82.4171796
   20   5.7276250   5.1468880  15.2975150   4.0563402   0.8843027  82.4171796
   21  11.3458520   6.1251840   6.7932360   4.0469791   0.8676460  72.5278479
   22   1.2170100  13.3106490  14.4552200   4.0469785   0.8676595  72.5278479
   23   6.3873190  15.8431010   3.8309930   4.0469791   0.8676631  72.5278479
   24   6.1755410   3.5927330  17.4174660   4.0469786   0.8676541  72.5278479
   25  13.7869770   7.3776270   7.2992980   2.5823875   0.1469927  44.8851587
   26  -1.2241160  12.0582060  13.9491610   2.5823338   0.1469722  44.8669127
   27   3.9461940  17.0955440   3.3249310   2.5823868   0.1469728  44.8851587
   28   8.6166680   2.3402890  17.9235270   2.5823344   0.1469817  44.8669127
   29  15.9035990   7.0487620   5.6244710   4.1457330   0.9032040  90.4819114
   30  -3.3407390  12.3870720  15.6239880   4.1457318   0.9031940  90.4819114
   31   1.8295700  16.7666780   4.9997590   4.1457329   0.9031780  90.4819114
   32  10.7332890   2.6691550  16.2486980   4.1457395   0.9032001  90.5001574
   33  18.1389130   8.3089910   5.9799470   3.9611349   0.8846467  77.5819897
   34  -5.5760530  11.1268420  15.2685120   3.9611356   0.8846323  77.5819897
   35  -0.4057440  18.0269060   4.6442820   3.9611753   0.8846229  77.6002357
   36  12.9686040   1.4089250  16.6041760   3.9611353   0.8846378  77.5819897
   37  20.4079070   8.0700810   4.5338770   4.1515833   0.9332965  66.6161441
   38  -7.8450450  11.3657520  16.7145820   4.1515833   0.9333139  66.6161441
   39  -2.6747360  17.7879960   6.0903530   4.1515424   0.9333196  66.5978981
   40  15.2375970   1.6478360  15.1581040   4.1515834   0.9333077  66.6161441
   41  20.7367070   6.3032270   2.5484590   3.9963095   0.9091934  78.1293697
   42  -8.1738450  13.1326070  18.7000000   3.9963102   0.9091744  78.1293697
   43  -3.0035360  16.0211430   8.0757710   3.9963100   0.9091650  78.1293697
   44  15.5663970   3.4146900  13.1726880   3.9963100   0.9091830  78.1293697
   45   0.0861790   6.0710150   1.2718650   4.0306247   0.9469734  85.5737375
   46  12.4766820  13.3648180  19.9765920   4.0306509   0.9469677  85.5919835
   47  17.6469920  15.7889320   9.3523630   4.0306509   0.9469524  85.5919835
   48  -5.0841310   3.6469020  11.8960940   4.0306497   0.9469716  85.5919835
   49   2.1988040   7.6298650   1.8879430   2.9441894   0.0780298  49.1912146
   50  10.3640570  11.8059680  19.3605140   2.9441338   0.0780139  49.1729686
   51  15.5343670  17.3477820   8.7362870   2.9441901   0.0780227  49.1912146
   52  -2.9715060   2.0880510  12.5121720   2.9441333   0.0780221  49.1729686
   53   1.8858150   9.4012990   3.8846590   3.9617597   0.8744225  84.8986355
   54  10.6770440  10.0345340  17.3638000   3.9617586   0.8744375  84.8986355
   55  15.8473560  19.1192160   6.7395700   3.9617588   0.8744425  84.8986355
   56  -3.2844940   0.3166170  14.5088860   3.9617592   0.8744327  84.8986355
   57  -0.3820170   9.5899340   5.1500600   4.0116171   0.9279057  78.8044717
   58  12.9448780   9.8459000  16.0983970   4.0116187   0.9279112  78.8044717
   59  18.1151880  19.3078500   5.4741670   4.0116172   0.9279280  78.8044717
   60  -5.5523280   0.1279830  15.7742890   4.0116189   0.9279076  78.8044717
   61  -5.6488400   5.5768320  19.8526910   3.4648956   0.0944438  64.6090841
   62  18.2117020  13.8590030   1.3957650   3.4648953   0.0944543  64.6090841
   63  13.0413920  15.2947470  12.0199950   3.4648962   0.0944413  64.6090841
   64  -0.4785310   4.1410840   9.2284620   3.4648952   0.0944486  64.6090841
   65   6.5215190   9.1039210   1.2061870   3.4150273   0.0995849  65.9045501
   66   6.0413420  10.3319120  20.0422710   3.4150284   0.0995804  65.9045501
   67  11.2116520  18.8218380   9.4180420   3.4150272   0.0995636  65.9045501
   68   1.3512080   0.6139950  11.8304150   3.4150287   0.0995818  65.9045501
   69   5.4097020   5.7998230   9.3688280   0.9761439   0.4203897  52.2747885
   70   7.1531580  13.6360080  11.8796300   0.9761434   0.4203914  52.2747885
   71  12.3234690  15.5177400   1.2554010   0.9761028   0.4203951  52.2565425
   72   0.2393920   3.9180920  19.9930560   0.9761441   0.4203878  52.2747885
   73   4.7251190   3.0605860   5.5695830   0.9228307   0.3200789  53.9716664
   74   7.8377410  16.3752480  15.6788740   0.9229193   0.3200681  53.9899124
   75  13.0080500  12.7785020   5.0546460   0.9229199   0.3200524  53.9899124
   76  -0.4451910   6.6573310  16.1938120   0.9228301   0.3200743  53.9716664
   77   8.2815020   2.2603660   2.5911460   0.8793861   0.3042894  42.9145908
   78   4.2813570  17.1754680  18.6573110   0.8793857   0.3042875  42.9145908
   79   9.4516690  11.9782820   8.0330840   0.8793862   0.3042802  42.9145908
   80   3.1111930   7.4575510  13.2153750   0.8793858   0.3042903  42.9145908
   81  12.4104910   4.1986440   3.3289520   0.9754405   0.4567961  43.6079387
   82   0.1523690  15.2371880  17.9195060   0.9754399   0.4568066  43.6079387
   83   5.3226790  13.9165600   7.2952770   0.9754401   0.4567991  43.6079387
   84   7.2401810   5.5192710  13.9531820   0.9754399   0.4568010  43.6079387
   85  15.7032950   5.7498420   4.0430640   0.9142479   0.4692202  42.1117668
   86  -3.1404360  13.6859910  17.2053940   0.9142483   0.4692249  42.1117668
   87   2.0298740  15.4677590   6.5811650   0.9142480   0.4692092  42.1117668
   88  10.5329860   3.9680750  14.6672920   0.9142481   0.4692228  42.1117668
   89  18.2199270   9.6223940   7.5778270   0.9054936   0.4397097  47.4395986
   90  -5.6570650   9.8134390  13.6706300   0.9054234   0.4397206  47.3848606
   91  -0.4867560  19.3403110   3.0464010   0.9054227   0.4397333  47.3848606
   92  13.0496150   0.0955230  18.2020560   0.9054944   0.4397128  47.4395986
   93  19.1786310   5.0686160   2.0040030   0.9600328   0.3697131  42.6956388
   94  -6.6157710  14.3672180  19.2444550   0.9600323   0.3697152  42.6956388
   95  -1.4454620  14.7865320   8.6202260   0.9600332   0.3696996  42.6956388
   96  14.0083210   4.6493010  12.6282310   0.9600320   0.3697151  42.6956388
   97 -10.1114120   4.6776160  21.0181320   0.9420112   0.5037638  41.9475528
   98  22.6742730  14.7582170   0.2303250   0.9419865   0.5037665  41.9293068
   99  17.5039630  14.3955310  10.8545550   0.9419861   0.5037610  41.9293068
  100  -4.9411010   5.0403000  10.3939030   0.9419863   0.5037633  41.9293068
  101   3.4508360  10.6049420   4.4526350   0.9189193   0.3991888  42.6956388
  102   9.1120230   8.8308910  16.7958230   0.9189197   0.3991911  42.6956388
  103  14.2823350   0.8870250   6.1715940   0.9189191   0.3991985  42.6956388
  104  -1.7194730  18.5488080  15.0768630   0.9189199   0.3991822  42.6956388
  105  -0.5660360  10.9458360   6.6921440   0.9714929   0.4757590  43.0240667
  106  13.1288980   8.4899980  14.5563140   0.9714936   0.4757426  43.0240667
  107  18.2992070   1.2279190   3.9320850   0.9714934   0.4757419  43.0240667
  108  -5.7363460  18.2079140  17.3163740   0.9714928   0.4757423  43.0240667
  109  -6.0128390   3.6536080  20.5582600   0.8609549   0.3161448  43.8451367
  110  18.5757010  15.7822250   0.6901970   0.8609543   0.3161428  43.8451367
  111  13.4053910  13.3715250  11.3144260   0.8609543   0.3161424  43.8451367
  112  -0.8425300   6.0643080   9.9340300   0.8609548   0.3161512  43.8451367
  113  -3.7219440   5.6527060  19.1081780   0.9242876   0.3620713  46.5455446
  114  16.2848040  13.7831270   2.1402810   0.9242883   0.3620854  46.5455446
  115  11.1144940  15.3706230  12.7645100   0.9242881   0.3620769  46.5455446
  116   1.4483680   4.0652100   8.4839490   0.9242878   0.3620650  46.5455446
  117  -6.9708570   5.9571350  18.2939510   0.9252688   0.4026660  42.3489648
  118  19.5337190  13.4786960   2.9545060   0.9252700   0.4026548  42.3489648
  119  14.3634090  15.6750520  13.5787350   0.9252701   0.4026590  42.3489648
  120  -1.8005470   3.7607800   7.6697210   0.9252693   0.4026705  42.3489648
  121   5.9531780  11.0975410   1.0386820   0.9075870   0.3583214  44.2830407
  122   6.6096830   8.3382930  20.2097740   0.9075857   0.3583050  44.2830407
  123  11.7799930   1.3796240   9.5855470   0.9075856   0.3583036  44.2830407
  124   0.7828690  18.0562090  11.6629120   0.9075869   0.3583044  44.2830407
  125  -2.2735220   8.7427070  21.1289540   0.9309377   0.3727002  65.1929561
  126  14.8363810  10.6931270   0.1195050   0.9309290   0.3727161  65.1747101
  127   9.6660710  18.4606230  10.7437330   0.9309215   0.3727103  65.1564641
  128   2.8967890   0.9752100  10.5047260   0.9309378   0.3726900  65.1929561
  129   7.2167860   8.7851930   3.1410600   0.9146559   0.4424713  44.9763887
  130   5.3460750  10.6506380  18.1073980   0.9146552   0.4424872  44.9763887
  131  10.5163850  18.5031120   7.4831690   0.9146553   0.4424892  44.9763887
  132   2.0464770   0.9327230  13.7652880   0.9146558   0.4424783  44.9763887
  133  11.4750210   8.5584080  10.4506820   0.0000000   0.0000000   0.0000000
  134   1.0878410  10.8774250  10.7977770   0.0000000   0.0000000   0.0000000
  135   6.2581510  18.2763250   0.1735460   0.0000000   0.0000000   0.0000000
  136   6.3047110   1.1595080  21.0749100   0.0000000   0.0000000   0.0000000
  137   4.4171450   7.4325960   0.6133640   7.5780153   1.5725718  93.7114533
  138   8.1457170  12.0032370  20.6350920   7.5780151   1.5725655  93.7114533
  139  13.3160260  17.1505130  10.0108650   7.5780164   1.5725655  93.7114533
  140  -0.7531650   2.2853210  11.2375940   7.5780139   1.5725664  93.7114533
  141   9.6016170   7.9335740  10.6036370   7.9899331   1.6228720 143.5595238
  142   2.9612450  11.5022590  10.6448200   7.9899207   1.6228652 143.5412778
  143   8.1315530  17.6514910   0.0205910   7.9899207   1.6228661 143.5412778
  144   4.4313070   1.7843420  21.2278650   7.9899329   1.6228654 143.5595238
  145  13.9711410   8.7759520   9.2760390   7.7696102   1.4612726 130.4953882
  146  -1.4082820  10.6598810  11.9724180   7.7696651   1.4612866 130.5136342
  147   3.7620280  18.4938690   1.3481890   7.7696089   1.4612965 130.4953882
  148   8.8008320   0.9419650  19.9002680   7.7696659   1.4612814 130.5136342
 --------------------------------------------------------------------------------
    VACUUM CHARGE:               0.0000
    VACUUM VOLUME:               0.0000
    NUMBER OF ELECTRONS:       408.0006
