      -----------------------------------------------------------      
     |                   =====================                   |     
     |                           x T B                           |     
     |                   =====================                   |     
     |                         S. Grimme                         |     
     |          Mulliken Center for Theoretical Chemistry        |     
     |                    University of Bonn                     |     
      -----------------------------------------------------------      

   * xtb version 6.3.3 (5b13467) compiled by 'ehlert@majestix' on 2020-09-17

   xtb is free software: you can redistribute it and/or modify it under
   the terms of the GNU Lesser General Public License as published by
   the Free Software Foundation, either version 3 of the License, or
   (at your option) any later version.
   
   xtb is distributed in the hope that it will be useful,
   but WITHOUT ANY WARRANTY; without even the implied warranty of
   MERCHANTABILITY or FITNESS FOR A PARTICULAR PURPOSE.  See the
   GNU Lesser General Public License for more details.
   
   Cite this work as:
   * C. Bannwarth, E. Caldeweyher, S. Ehlert, A. Hansen, P. Pracht,
     J. Seibert, S. Spicher, S. Grimme, WIREs Comput. Mol. Sci., 2020,
     e01493. DOI: 10.1002/wcms.1493
   
   for GFN2-xTB:
   * S. Grimme, C. Bannwarth, P. Shushkov, J. Chem. Theory Comput., 2017,
     13, 1989-2009. DOI: 10.1021/acs.jctc.7b00118
   for GFN1-xTB:
   * C. Bannwarth, S. Ehlert and S. Grimme., J. Chem. Theory Comput., 2019,
     15, 1652-1671. DOI: 10.1021/acs.jctc.8b01176
   for GFN0-xTB:
   * P. Pracht, E. Caldeweyher, S. Ehlert, S. Grimme, ChemRxiv, 2019, preprint.
     DOI: 10.26434/chemrxiv.8326202.v1
   for GFN-FF:
   * S. Spicher and S. Grimme, Angew. Chem. Int. Ed., 2020, 59, 15665-15673.
     DOI: 10.1002/anie.202004239
   
   for DFT-D4:
   * E. Caldeweyher, C. Bannwarth and S. Grimme, J. Chem. Phys., 2017,
     147, 034112. DOI: 10.1063/1.4993215
   * E. Caldeweyher, S. Ehlert, A. Hansen, H. Neugebauer, S. Spicher,
     C. Bannwarth and S. Grimme, J. Chem. Phys., 2019, 150, 154122.
     DOI: 10.1063/1.5090222
   * E. Caldeweyher, J.-M. Mewes, S. Ehlert and S. Grimme, Phys. Chem. Chem. Phys.
     2020, 22, 8499-8512. DOI: 10.1039/D0CP00502A
   
   for sTDA-xTB:
   * S. Grimme and C. Bannwarth, J. Chem. Phys., 2016, 145, 054103.
     DOI: 10.1063/1.4959605
   
   in the mass-spec context:
   * V. Asgeirsson, C. Bauer and S. Grimme, Chem. Sci., 2017, 8, 4879.
     DOI: 10.1039/c7sc00601b
   * J. Koopman and S. Grimme, ACS Omega 2019, 4, 12, 15120-15133.
     DOI: 10.1021/acsomega.9b02011
   
   for metadynamics refer to:
   * S. Grimme, J. Chem. Theory Comput., 2019, 155, 2847-2862
     DOI: 10.1021/acs.jctc.9b00143
   
   with help from (in alphabetical order)
   C. Bannwarth, F. Bohle, G. Brandenburg, E. Caldeweyher, M. Checinski,
   S. Dohm, S. Ehlert, S. Ehrlich, F. März, H. Neugebauer, J. Pisarek,
   P. Pracht, P. Shushkov, and S. Spicher.
   
 * started run on 2022/02/23 at 16:58:47.933     

           -------------------------------------------------
          |                Calculation Setup                |
           -------------------------------------------------

          program call               : xtb coord --grad
          hostname                   : login-01
          coordinate file            : coord
          omp threads                :                     1
          number of atoms            :                   315
          number of electrons        :                   756
          charge                     :                     0
          spin                       :                   0.0
          first test random number   :      0.24274930201177

   ID    Z sym.   atoms
    1    6 C      1-4, 6, 8, 10, 16, 18, 20, 21, 23-25, 31-33, 35, 36, 39,
                  41, 46-48, 50, 51, 54, 55, 61, 63, 65, 66, 68-70, 77,
                  79-81, 83-85, 91-93, 95, 96, 99, 100, 107-111, 114, 115,
                  121, 123, 125, 126, 128-130, 137-141, 143, 145, 151-153,
                  155, 156, 159, 161, 166-168, 170, 171, 174, 176, 182-186,
                  188, 190, 196-198, 200, 201, 204, 205, 212, 214-217, 219,
                  220, 227, 229-231, 233-235, 241-243, 245, 246, 249, 250,
                  256, 258, 260, 261, 263-265, 272-275, 277, 278, 281,
                  286-288, 290, 291, 294, 296, 302-305, 307, 309, 312
    2    1 H      5, 7, 9, 11-15, 17, 19, 22, 26-30, 34, 37, 38, 40, 42-45,
                  49, 52, 53, 56-60, 62, 64, 67, 71-76, 78, 82, 86-90, 94,
                  97, 98, 101-106, 112, 113, 116-120, 122, 124, 127, 131-136,
                  142, 144, 146-150, 154, 157, 158, 160, 162-165, 169, 172,
                  173, 175, 177-181, 187, 189, 191-195, 199, 202, 203,
                  206-211, 213, 218, 221-226, 228, 232, 236-240, 244, 247,
                  248, 251-255, 257, 259, 262, 266-271, 276, 279, 280,
                  282-285, 289, 292, 293, 295, 297-301, 306, 308, 310, 311,
                  313-315

molecular fragmentation (1/2 indicates fragments):
111111111111111222222222222222222222222222222222222222222222222222222222
222222222222222222222222222222222222222222222222222222222222222222222222
222222222222222222222222222222222222222222222222222222222222222222222222
222222222222222222222222222222222222222222222222222222222222222222222222
222222222222222222222222222
# atoms in fragment 1/2:    15   300
 fragment masses (1/2) :       92.14     1842.77
CMA distance (Bohr)    :   0.920
constraining FC (au)   :  0.0500

           -------------------------------------------------
          |                 G F N 2 - x T B                 |
           -------------------------------------------------

        Reference                      10.1021/acs.jctc.8b01176
      * Hamiltonian:
        H0-scaling (s, p, d)           1.850000    2.230000    2.230000
        zeta-weighting                 0.500000
      * Dispersion:
        s8                             2.700000
        a1                             0.520000
        a2                             5.000000
        s9                             5.000000
      * Repulsion:
        kExp                           1.500000    1.000000
        rExp                           1.000000
      * Coulomb:
        alpha                          2.000000
        third order                    shell-resolved
        anisotropic                    true
        a3                             3.000000
        a5                             4.000000
        cn-shift                       1.200000
        cn-exp                         4.000000
        max-rad                        5.000000

q/qsh data taken from xtbrestart
CAMM data taken from xtbrestart

          ...................................................
          :                      SETUP                      :
          :.................................................:
          :  # basis functions                 756          :
          :  # atomic orbitals                 756          :
          :  # shells                          462          :
          :  # electrons                       756          :
          :  max. iterations                   250          :
          :  Hamiltonian                  GFN2-xTB          :
          :  restarted?                       true          :
          :  GBSA solvation                  false          :
          :  PC potential                    false          :
          :  electronic temp.          300.0000000     K    :
          :  accuracy                    1.0000000          :
          :  -> integral cutoff          0.2500000E+02      :
          :  -> integral neglect         0.1000000E-07      :
          :  -> SCF convergence          0.1000000E-05 Eh   :
          :  -> wf. convergence          0.1000000E-03 e    :
          :  Broyden damping             0.4000000          :
          ...................................................

 iter      E             dE          RMSdq      gap      omega  full diag
   1   -405.1332587 -0.405133E+03  0.459E-02    1.91       0.0  T
   2   -405.1331272  0.131459E-03  0.323E-02    1.91       1.0  T
   3   -405.1328158  0.311441E-03  0.459E-02    1.91       1.0  T
   4   -405.1333148 -0.499019E-03  0.481E-03    1.91       1.2  T
   5   -405.1333165 -0.174782E-05  0.352E-03    1.91       1.6  T
   6   -405.1333185 -0.199154E-05  0.257E-03    1.91       2.2  T
   7   -405.1333201 -0.153540E-05  0.126E-03    1.91       4.5  T
   8   -405.1333205 -0.401870E-06  0.302E-04    1.91      18.6  T
   9   -405.1333205 -0.142068E-07  0.107E-04    1.91      52.8  T

   *** convergence criteria satisfied after 9 iterations ***

         #    Occupation            Energy/Eh            Energy/eV
      -------------------------------------------------------------
         1        2.0000           -0.6513711             -17.7247
       ...           ...                  ...                  ...
       372        2.0000           -0.3789426             -10.3116
       373        2.0000           -0.3783002             -10.2941
       374        2.0000           -0.3781551             -10.2901
       375        2.0000           -0.3778089             -10.2807
       376        2.0000           -0.3767346             -10.2515
       377        2.0000           -0.3639625              -9.9039
       378        2.0000           -0.3381221              -9.2008 (HOMO)
       379                         -0.2679404              -7.2910 (LUMO)
       380                         -0.2402501              -6.5375
       381                         -0.2247023              -6.1145
       382                         -0.2241970              -6.1007
       383                         -0.2237362              -6.0882
       ...                                ...                  ...
       756                          0.6769389              18.4204
      -------------------------------------------------------------
                  HL-Gap            0.0701816 Eh            1.9097 eV
             Fermi-level           -0.3030313 Eh           -8.2459 eV

 SCC (total)                   0 d,  0 h,  0 min,  4.322 sec
 SCC setup                      ...        0 min,  0.016 sec (  0.367%)
 Dispersion                     ...        0 min,  0.038 sec (  0.884%)
 classical contributions        ...        0 min,  0.009 sec (  0.207%)
 integral evaluation            ...        0 min,  1.135 sec ( 26.271%)
 iterations                     ...        0 min,  1.641 sec ( 37.963%)
 molecular gradient             ...        0 min,  1.459 sec ( 33.769%)
 printout                       ...        0 min,  0.023 sec (  0.538%)

         :::::::::::::::::::::::::::::::::::::::::::::::::::::
         ::                     SUMMARY                     ::
         :::::::::::::::::::::::::::::::::::::::::::::::::::::
         :: total energy            -398.949919030999 Eh    ::
         :: gradient norm              0.346437584964 Eh/a0 ::
         :: HOMO-LUMO gap              1.909739884569 eV    ::
         ::.................................................::
         :: SCC energy              -405.133320489366 Eh    ::
         :: -> isotropic ES            0.022719380111 Eh    ::
         :: -> anisotropic ES          0.072434584901 Eh    ::
         :: -> anisotropic XC          0.310271435123 Eh    ::
         :: -> dispersion             -0.458264035961 Eh    ::
         :: repulsion energy           6.133718911456 Eh    ::
         :: add. restraining           0.000000000000 Eh    ::
         :: total charge              -0.000000000000 e     ::
         :::::::::::::::::::::::::::::::::::::::::::::::::::::

           -------------------------------------------------
          |                Property Printout                |
           -------------------------------------------------

    * Orbital Energies and Occupations

         #    Occupation            Energy/Eh            Energy/eV
      -------------------------------------------------------------
         1        2.0000           -0.6513711             -17.7247
       ...           ...                  ...                  ...
       366        2.0000           -0.3811518             -10.3717
       367        2.0000           -0.3810143             -10.3679
       368        2.0000           -0.3806903             -10.3591
       369        2.0000           -0.3804157             -10.3516
       370        2.0000           -0.3796223             -10.3300
       371        2.0000           -0.3795812             -10.3289
       372        2.0000           -0.3789426             -10.3116
       373        2.0000           -0.3783002             -10.2941
       374        2.0000           -0.3781551             -10.2901
       375        2.0000           -0.3778089             -10.2807
       376        2.0000           -0.3767346             -10.2515
       377        2.0000           -0.3639625              -9.9039
       378        2.0000           -0.3381221              -9.2008 (HOMO)
       379                         -0.2679404              -7.2910 (LUMO)
       380                         -0.2402501              -6.5375
       381                         -0.2247023              -6.1145
       382                         -0.2241970              -6.1007
       383                         -0.2237362              -6.0882
       384                         -0.2236297              -6.0853
       385                         -0.2235708              -6.0837
       386                         -0.2229256              -6.0661
       387                         -0.2226019              -6.0573
       388                         -0.2218901              -6.0379
       389                         -0.2216415              -6.0312
       ...                                ...                  ...
       756                          0.6769389              18.4204
      -------------------------------------------------------------
                  HL-Gap            0.0701816 Eh            1.9097 eV
             Fermi-level           -0.3030313 Eh           -8.2459 eV

     #   Z          covCN         q      C6AA      α(0)
     1   6 C        3.787     0.024    20.183     6.399
     2   6 C        2.642    -0.043    29.043     8.816
     3   6 C        2.917    -0.042    29.049     8.838
     4   6 C        3.832    -0.030    21.079     6.532
     5   1 H        0.819     0.004     3.037     2.735
     6   6 C        2.883    -0.057    29.404     8.890
     7   1 H        0.653     0.006     3.301     2.918
     8   6 C        2.893    -0.058    29.429     8.894
     9   1 H        0.913     0.034     2.535     2.490
    10   6 C        3.895     0.011    20.335     6.410
    11   1 H        0.888     0.020     2.740     2.591
    12   1 H        0.918     0.016     2.793     2.614
    13   1 H        0.912     0.032     2.555     2.501
    14   1 H        0.920     0.040     2.456     2.451
    15   1 H        0.909     0.021     2.728     2.584
    16   6 C        3.926    -0.044    21.299     6.559
    17   1 H        0.924     0.027     2.628     2.535
    18   6 C        4.020    -0.015    20.762     6.473
    19   1 H        0.924     0.032     2.554     2.499
    20   6 C        4.024    -0.012    20.715     6.465
    21   6 C        2.963    -0.040    28.980     8.830
    22   1 H        0.924     0.031     2.572     2.508
    23   6 C        2.963    -0.037    28.921     8.821
    24   6 C        2.962    -0.041    29.009     8.834
    25   6 C        2.958    -0.040    29.004     8.833
    26   1 H        0.924     0.022     2.709     2.574
    27   1 H        0.925     0.030     2.585     2.514
    28   1 H        0.925     0.031     2.568     2.506
    29   1 H        0.925     0.028     2.618     2.530
    30   1 H        0.925     0.030     2.592     2.518
    31   6 C        4.020    -0.015    20.757     6.472
    32   6 C        2.965    -0.040    28.993     8.832
    33   6 C        3.927    -0.045    21.315     6.561
    34   1 H        0.924     0.031     2.574     2.509
    35   6 C        2.965    -0.038    28.939     8.824
    36   6 C        2.960    -0.040    28.983     8.830
    37   1 H        0.925     0.029     2.594     2.519
    38   1 H        0.924     0.028     2.612     2.528
    39   6 C        4.025    -0.015    20.763     6.473
    40   1 H        0.924     0.029     2.597     2.520
    41   6 C        2.960    -0.040    28.992     8.832
    42   1 H        0.925     0.029     2.598     2.521
    43   1 H        0.925     0.029     2.597     2.520
    44   1 H        0.924     0.024     2.667     2.554
    45   1 H        0.925     0.033     2.551     2.498
    46   6 C        4.024    -0.013    20.730     6.468
    47   6 C        2.958    -0.042    29.040     8.839
    48   6 C        2.962    -0.042    29.042     8.839
    49   1 H        0.924     0.025     2.662     2.552
    50   6 C        3.926    -0.041    21.244     6.550
    51   6 C        2.963    -0.040    28.998     8.833
    52   1 H        0.925     0.030     2.589     2.516
    53   1 H        0.925     0.033     2.542     2.493
    54   6 C        2.963    -0.040    28.989     8.831
    55   6 C        4.020    -0.016    20.787     6.477
    56   1 H        0.924     0.032     2.562     2.503
    57   1 H        0.924     0.027     2.633     2.538
    58   1 H        0.925     0.029     2.598     2.521
    59   1 H        0.925     0.029     2.599     2.521
    60   1 H        0.924     0.030     2.593     2.518
    61   6 C        3.926    -0.046    21.336     6.565
    62   1 H        0.924     0.028     2.620     2.531
    63   6 C        4.020    -0.015    20.755     6.472
    64   1 H        0.924     0.032     2.560     2.502
    65   6 C        4.024    -0.009    20.651     6.455
    66   6 C        2.963    -0.040    29.001     8.833
    67   1 H        0.924     0.023     2.683     2.561
    68   6 C        2.963    -0.039    28.977     8.830
    69   6 C        2.962    -0.039    28.970     8.828
    70   6 C        2.958    -0.039    28.974     8.829
    71   1 H        0.924     0.022     2.698     2.569
    72   1 H        0.925     0.028     2.621     2.532
    73   1 H        0.925     0.028     2.614     2.529
    74   1 H        0.925     0.034     2.536     2.490
    75   1 H        0.925     0.032     2.565     2.504
    76   1 H        0.924     0.034     2.531     2.488
    77   6 C        3.926    -0.048    21.376     6.571
    78   1 H        0.924     0.028     2.615     2.529
    79   6 C        4.020    -0.015    20.770     6.474
    80   6 C        4.024    -0.011    20.694     6.462
    81   6 C        2.963    -0.040    28.995     8.832
    82   1 H        0.924     0.028     2.612     2.528
    83   6 C        2.963    -0.038    28.938     8.824
    84   6 C        2.962    -0.040    28.980     8.830
    85   6 C        2.958    -0.039    28.974     8.829
    86   1 H        0.924     0.022     2.705     2.572
    87   1 H        0.925     0.031     2.577     2.510
    88   1 H        0.925     0.030     2.590     2.517
    89   1 H        0.925     0.030     2.589     2.516
    90   1 H        0.925     0.030     2.588     2.516
    91   6 C        4.024    -0.009    20.663     6.457
    92   6 C        2.958    -0.040    29.004     8.834
    93   6 C        2.962    -0.040    28.995     8.832
    94   1 H        0.924     0.023     2.695     2.567
    95   6 C        3.926    -0.040    21.225     6.547
    96   6 C        2.963    -0.041    29.012     8.835
    97   1 H        0.925     0.029     2.602     2.523
    98   1 H        0.925     0.033     2.538     2.491
    99   6 C        2.963    -0.040    28.994     8.832
   100   6 C        4.020    -0.016    20.781     6.476
   101   1 H        0.924     0.031     2.571     2.508
   102   1 H        0.924     0.027     2.624     2.533
   103   1 H        0.925     0.029     2.603     2.523
   104   1 H        0.925     0.029     2.606     2.524
   105   1 H        0.924     0.030     2.593     2.518
   106   1 H        0.924     0.029     2.602     2.523
   107   6 C        4.024    -0.012    20.712     6.465
   108   6 C        2.958    -0.039    28.967     8.828
   109   6 C        2.962    -0.040    28.993     8.832
   110   6 C        3.926    -0.046    21.334     6.564
   111   6 C        2.963    -0.041    29.019     8.836
   112   1 H        0.925     0.029     2.595     2.519
   113   1 H        0.925     0.036     2.503     2.474
   114   6 C        2.963    -0.042    29.031     8.838
   115   6 C        4.020    -0.017    20.803     6.479
   116   1 H        0.924     0.029     2.605     2.524
   117   1 H        0.924     0.030     2.585     2.514
   118   1 H        0.925     0.029     2.604     2.524
   119   1 H        0.925     0.028     2.618     2.530
   120   1 H        0.924     0.026     2.646     2.544
   121   6 C        3.926    -0.041    21.235     6.549
   122   1 H        0.924     0.026     2.644     2.543
   123   6 C        4.020    -0.015    20.768     6.474
   124   1 H        0.924     0.033     2.547     2.496
   125   6 C        4.024    -0.013    20.736     6.469
   126   6 C        2.963    -0.039    28.968     8.828
   127   1 H        0.924     0.035     2.513     2.479
   128   6 C        2.963    -0.038    28.937     8.824
   129   6 C        2.962    -0.042    29.036     8.838
   130   6 C        2.958    -0.043    29.061     8.842
   131   1 H        0.924     0.024     2.675     2.558
   132   1 H        0.925     0.029     2.594     2.519
   133   1 H        0.925     0.030     2.589     2.516
   134   1 H        0.925     0.028     2.609     2.526
   135   1 H        0.925     0.028     2.618     2.530
   136   1 H        0.925     0.034     2.527     2.486
   137   6 C        2.960    -0.039    28.963     8.827
   138   6 C        4.025    -0.015    20.760     6.472
   139   6 C        2.965    -0.039    28.963     8.827
   140   6 C        2.960    -0.038    28.950     8.825
   141   6 C        3.927    -0.049    21.391     6.573
   142   1 H        0.924     0.026     2.645     2.543
   143   6 C        4.020    -0.015    20.768     6.474
   144   1 H        0.925     0.029     2.608     2.525
   145   6 C        2.965    -0.040    28.989     8.831
   146   1 H        0.925     0.031     2.578     2.511
   147   1 H        0.924     0.030     2.587     2.515
   148   1 H        0.924     0.030     2.584     2.514
   149   1 H        0.924     0.025     2.656     2.549
   150   1 H        0.925     0.030     2.584     2.514
   151   6 C        4.020    -0.014    20.752     6.471
   152   6 C        2.965    -0.038    28.939     8.824
   153   6 C        3.927    -0.047    21.357     6.568
   154   1 H        0.924     0.027     2.624     2.533
   155   6 C        2.965    -0.037    28.926     8.822
   156   6 C        2.960    -0.040    28.990     8.831
   157   1 H        0.925     0.029     2.607     2.525
   158   1 H        0.924     0.028     2.612     2.527
   159   6 C        4.025    -0.014    20.749     6.471
   160   1 H        0.924     0.029     2.606     2.525
   161   6 C        2.960    -0.040    28.980     8.830
   162   1 H        0.925     0.029     2.599     2.521
   163   1 H        0.925     0.033     2.549     2.497
   164   1 H        0.924     0.024     2.673     2.557
   165   1 H        0.925     0.033     2.547     2.496
   166   6 C        4.020    -0.014    20.740     6.469
   167   6 C        2.965    -0.038    28.936     8.823
   168   6 C        3.927    -0.044    21.294     6.558
   169   1 H        0.924     0.032     2.565     2.505
   170   6 C        2.965    -0.037    28.917     8.820
   171   6 C        2.960    -0.042    29.040     8.839
   172   1 H        0.925     0.030     2.589     2.516
   173   1 H        0.924     0.027     2.625     2.534
   174   6 C        4.025    -0.016    20.774     6.475
   175   1 H        0.924     0.028     2.614     2.528
   176   6 C        2.960    -0.042    29.033     8.838
   177   1 H        0.925     0.031     2.571     2.508
   178   1 H        0.925     0.031     2.577     2.510
   179   1 H        0.924     0.024     2.680     2.560
   180   1 H        0.925     0.030     2.583     2.514
   181   1 H        0.925     0.031     2.576     2.510
   182   6 C        2.965    -0.038    28.933     8.823
   183   6 C        4.020    -0.016    20.783     6.476
   184   6 C        2.960    -0.041    29.018     8.836
   185   6 C        2.965    -0.040    28.985     8.831
   186   6 C        3.927    -0.045    21.316     6.561
   187   1 H        0.924     0.034     2.532     2.488
   188   6 C        4.025    -0.017    20.792     6.477
   189   1 H        0.925     0.029     2.600     2.522
   190   6 C        2.960    -0.042    29.033     8.838
   191   1 H        0.925     0.030     2.590     2.516
   192   1 H        0.924     0.029     2.595     2.519
   193   1 H        0.924     0.031     2.576     2.510
   194   1 H        0.924     0.026     2.644     2.543
   195   1 H        0.925     0.029     2.598     2.521
   196   6 C        4.024    -0.010    20.671     6.459
   197   6 C        2.958    -0.041    29.022     8.836
   198   6 C        2.962    -0.041    29.006     8.834
   199   1 H        0.924     0.024     2.671     2.556
   200   6 C        3.926    -0.041    21.248     6.551
   201   6 C        2.963    -0.040    28.983     8.830
   202   1 H        0.925     0.030     2.583     2.513
   203   1 H        0.925     0.032     2.565     2.504
   204   6 C        2.963    -0.042    29.037     8.839
   205   6 C        4.020    -0.016    20.781     6.476
   206   1 H        0.924     0.033     2.546     2.495
   207   1 H        0.924     0.027     2.634     2.538
   208   1 H        0.925     0.029     2.600     2.521
   209   1 H        0.925     0.028     2.613     2.528
   210   1 H        0.924     0.029     2.600     2.522
   211   1 H        0.924     0.034     2.531     2.488
   212   6 C        3.926    -0.043    21.286     6.557
   213   1 H        0.924     0.028     2.614     2.528
   214   6 C        4.024    -0.014    20.751     6.471
   215   6 C        4.020    -0.017    20.791     6.477
   216   6 C        2.958    -0.041    29.027     8.837
   217   6 C        2.962    -0.041    29.022     8.836
   218   1 H        0.924     0.024     2.677     2.559
   219   6 C        2.963    -0.039    28.959     8.827
   220   6 C        2.963    -0.040    28.992     8.832
   221   1 H        0.924     0.031     2.574     2.509
   222   1 H        0.925     0.030     2.592     2.518
   223   1 H        0.925     0.030     2.586     2.515
   224   1 H        0.925     0.031     2.568     2.506
   225   1 H        0.925     0.030     2.588     2.516
   226   1 H        0.924     0.027     2.631     2.537
   227   6 C        3.926    -0.044    21.287     6.557
   228   1 H        0.924     0.026     2.646     2.544
   229   6 C        4.020    -0.015    20.768     6.474
   230   6 C        4.024    -0.013    20.733     6.468
   231   6 C        2.963    -0.039    28.968     8.828
   232   1 H        0.924     0.028     2.622     2.532
   233   6 C        2.963    -0.040    29.002     8.833
   234   6 C        2.962    -0.040    28.982     8.830
   235   6 C        2.958    -0.039    28.979     8.830
   236   1 H        0.924     0.027     2.631     2.537
   237   1 H        0.925     0.028     2.614     2.528
   238   1 H        0.925     0.030     2.583     2.513
   239   1 H        0.925     0.036     2.507     2.476
   240   1 H        0.925     0.030     2.591     2.517
   241   6 C        4.024    -0.010    20.680     6.460
   242   6 C        2.958    -0.040    28.981     8.830
   243   6 C        2.962    -0.039    28.979     8.830
   244   1 H        0.924     0.026     2.639     2.540
   245   6 C        3.926    -0.046    21.333     6.564
   246   6 C        2.963    -0.040    28.986     8.831
   247   1 H        0.925     0.031     2.569     2.506
   248   1 H        0.925     0.031     2.567     2.505
   249   6 C        2.963    -0.042    29.041     8.839
   250   6 C        4.020    -0.017    20.796     6.478
   251   1 H        0.924     0.034     2.534     2.489
   252   1 H        0.924     0.029     2.606     2.525
   253   1 H        0.925     0.030     2.592     2.518
   254   1 H        0.925     0.028     2.610     2.527
   255   1 H        0.924     0.026     2.647     2.544
   256   6 C        3.926    -0.040    21.226     6.548
   257   1 H        0.924     0.027     2.625     2.534
   258   6 C        4.020    -0.015    20.760     6.473
   259   1 H        0.924     0.026     2.648     2.545
   260   6 C        4.024    -0.015    20.763     6.473
   261   6 C        2.963    -0.036    28.881     8.815
   262   1 H        0.924     0.031     2.574     2.509
   263   6 C        2.963    -0.040    28.983     8.830
   264   6 C        2.962    -0.038    28.949     8.825
   265   6 C        2.958    -0.041    29.010     8.834
   266   1 H        0.924     0.027     2.627     2.535
   267   1 H        0.925     0.032     2.561     2.503
   268   1 H        0.925     0.030     2.586     2.515
   269   1 H        0.925     0.032     2.552     2.498
   270   1 H        0.925     0.028     2.611     2.527
   271   1 H        0.925     0.035     2.519     2.482
   272   6 C        2.960    -0.039    28.973     8.829
   273   6 C        2.965    -0.039    28.968     8.828
   274   6 C        4.025    -0.015    20.760     6.472
   275   6 C        4.020    -0.015    20.766     6.473
   276   1 H        0.925     0.028     2.608     2.526
   277   6 C        3.927    -0.049    21.390     6.573
   278   6 C        2.960    -0.038    28.945     8.825
   279   1 H        0.924     0.026     2.646     2.544
   280   1 H        0.924     0.025     2.659     2.550
   281   6 C        2.965    -0.040    28.985     8.831
   282   1 H        0.924     0.030     2.589     2.516
   283   1 H        0.924     0.030     2.587     2.515
   284   1 H        0.925     0.030     2.581     2.512
   285   1 H        0.925     0.030     2.583     2.513
   286   6 C        4.020    -0.014    20.753     6.471
   287   6 C        2.965    -0.038    28.949     8.825
   288   6 C        3.927    -0.045    21.313     6.561
   289   1 H        0.924     0.031     2.576     2.510
   290   6 C        2.965    -0.040    28.990     8.832
   291   6 C        2.960    -0.041    29.007     8.834
   292   1 H        0.925     0.030     2.590     2.517
   293   1 H        0.924     0.029     2.607     2.525
   294   6 C        4.025    -0.015    20.763     6.473
   295   1 H        0.924     0.028     2.609     2.526
   296   6 C        2.960    -0.040    28.981     8.830
   297   1 H        0.925     0.029     2.594     2.519
   298   1 H        0.925     0.033     2.542     2.494
   299   1 H        0.924     0.024     2.669     2.555
   300   1 H        0.925     0.029     2.602     2.523
   301   1 H        0.925     0.030     2.584     2.514
   302   6 C        2.965    -0.038    28.942     8.824
   303   6 C        4.020    -0.016    20.782     6.476
   304   6 C        2.960    -0.041    29.024     8.837
   305   6 C        3.927    -0.045    21.315     6.561
   306   1 H        0.924     0.034     2.530     2.488
   307   6 C        2.965    -0.040    28.983     8.831
   308   1 H        0.925     0.029     2.601     2.522
   309   6 C        4.025    -0.017    20.792     6.477
   310   1 H        0.924     0.030     2.582     2.513
   311   1 H        0.924     0.030     2.589     2.516
   312   6 C        2.960    -0.042    29.030     8.838
   313   1 H        0.925     0.030     2.587     2.515
   314   1 H        0.924     0.026     2.644     2.543
   315   1 H        0.925     0.029     2.595     2.519

 Mol. C6AA /au·bohr⁶  :    1020690.341535
 Mol. C8AA /au·bohr⁸  :   24189523.222201
 Mol. α(0) /au        :       1575.506408


Wiberg/Mayer (AO) data.
largest (>0.10) Wiberg bond orders for each atom

 ---------------------------------------------------------------------------
     #   Z sym  total        # sym  WBO       # sym  WBO       # sym  WBO
 ---------------------------------------------------------------------------
     1   6 C    3.976 --     3 C    1.008     2 C    0.990     4 C    0.960
                             5 H    0.936
     2   6 C    3.930 --     6 C    1.839     1 C    0.990     7 H    0.933
     3   6 C    3.959 --     8 C    1.842     1 C    1.008     9 H    0.962
     4   6 C    3.980 --    10 C    0.970    12 H    0.967    11 H    0.961
                             1 C    0.960
     5   1 H    1.000 --     1 C    0.936
     6   6 C    3.953 --     2 C    1.839    10 C    1.006    13 H    0.956
     7   1 H    1.000 --     2 C    0.933
     8   6 C    3.960 --     3 C    1.842    10 C    1.000    14 H    0.961
     9   1 H    0.999 --     3 C    0.962
    10   6 C    3.988 --     6 C    1.006     8 C    1.000     4 C    0.970
                            15 H    0.953
    11   1 H    1.000 --     4 C    0.961
    12   1 H    1.000 --     4 C    0.967
    13   1 H    0.999 --     6 C    0.956
    14   1 H    0.998 --     8 C    0.961
    15   1 H    0.999 --    10 C    0.953
    16   6 C    3.992 --    17 H    0.978    18 C    0.976    20 C    0.976
                            19 H    0.974
    17   1 H    0.999 --    16 C    0.978
    18   6 C    3.990 --    21 C    0.987    23 C    0.985    16 C    0.976
                            22 H    0.969
    19   1 H    0.999 --    16 C    0.974
    20   6 C    3.991 --    25 C    0.986    24 C    0.985    16 C    0.976
                            26 H    0.972
    21   6 C    3.984 --    24 C    1.934    18 C    0.987    27 H    0.968
    22   1 H    0.999 --    18 C    0.969
    23   6 C    3.984 --    25 C    1.932    18 C    0.985    28 H    0.962
    24   6 C    3.983 --    21 C    1.934    20 C    0.985    29 H    0.970
    25   6 C    3.984 --    23 C    1.932    20 C    0.986    30 H    0.966
    26   1 H    0.999 --    20 C    0.972
    27   1 H    0.999 --    21 C    0.968
    28   1 H    0.999 --    23 C    0.962
    29   1 H    0.999 --    24 C    0.970
    30   1 H    0.999 --    25 C    0.966
    31   6 C    3.990 --    32 C    0.986    35 C    0.986    33 C    0.976
                            34 H    0.969
    32   6 C    3.984 --    36 C    1.934    31 C    0.986    37 H    0.968
    33   6 C    3.992 --    38 H    0.978    40 H    0.978    39 C    0.976
                            31 C    0.976
    34   1 H    0.999 --    31 C    0.969
    35   6 C    3.984 --    41 C    1.932    31 C    0.986    42 H    0.960
    36   6 C    3.984 --    32 C    1.934    39 C    0.986    43 H    0.969
    37   1 H    0.999 --    32 C    0.968
    38   1 H    0.999 --    33 C    0.978
    39   6 C    3.991 --    36 C    0.986    41 C    0.986    33 C    0.976
                            44 H    0.974
    40   1 H    0.999 --    33 C    0.978
    41   6 C    3.984 --    35 C    1.932    39 C    0.986    45 H    0.966
    42   1 H    0.999 --    35 C    0.960
    43   1 H    0.999 --    36 C    0.969
    44   1 H    0.999 --    39 C    0.974
    45   1 H    0.999 --    41 C    0.966
    46   6 C    3.991 --    47 C    0.986    48 C    0.985    50 C    0.976
                            49 H    0.971
    47   6 C    3.984 --    51 C    1.936    46 C    0.986    52 H    0.970
    48   6 C    3.984 --    54 C    1.933    46 C    0.985    53 H    0.967
    49   1 H    0.999 --    46 C    0.971
    50   6 C    3.992 --    55 C    0.976    46 C    0.976    56 H    0.974
                            57 H    0.972
    51   6 C    3.984 --    47 C    1.936    55 C    0.986    58 H    0.970
    52   1 H    0.999 --    47 C    0.970
    53   1 H    0.999 --    48 C    0.967
    54   6 C    3.984 --    48 C    1.933    55 C    0.986    59 H    0.969
    55   6 C    3.991 --    54 C    0.986    51 C    0.986    50 C    0.976
                            60 H    0.972
    56   1 H    0.999 --    50 C    0.974
    57   1 H    0.999 --    50 C    0.972
    58   1 H    0.999 --    51 C    0.970
    59   1 H    0.999 --    54 C    0.969
    60   1 H    0.999 --    55 C    0.972
    61   6 C    3.991 --    62 H    0.978    63 C    0.976    65 C    0.976
                            64 H    0.975
    62   1 H    0.999 --    61 C    0.978
    63   6 C    3.991 --    66 C    0.986    68 C    0.985    61 C    0.976
                            67 H    0.975
    64   1 H    0.999 --    61 C    0.975
    65   6 C    3.990 --    70 C    0.986    69 C    0.985    61 C    0.976
                            71 H    0.968
    66   6 C    3.983 --    69 C    1.931    63 C    0.986    72 H    0.963
    67   1 H    0.999 --    63 C    0.975
    68   6 C    3.983 --    70 C    1.932    63 C    0.985    73 H    0.963
    69   6 C    3.984 --    66 C    1.931    65 C    0.985    74 H    0.965
    70   6 C    3.984 --    68 C    1.932    65 C    0.986    75 H    0.965
    71   1 H    0.999 --    65 C    0.968
    72   1 H    0.999 --    66 C    0.963
    73   1 H    0.999 --    68 C    0.963
    74   1 H    0.999 --    69 C    0.965
    75   1 H    0.999 --    70 C    0.965
    76   1 H    0.999 --    77 C    0.975
    77   6 C    3.992 --    78 H    0.980    79 C    0.976    80 C    0.976
                            76 H    0.975
    78   1 H    0.999 --    77 C    0.980
    79   6 C    3.990 --    81 C    0.986    83 C    0.985    77 C    0.976
                            82 H    0.972
    80   6 C    3.991 --    85 C    0.986    84 C    0.985    77 C    0.976
                            86 H    0.971
    81   6 C    3.984 --    84 C    1.934    79 C    0.986    87 H    0.968
    82   1 H    0.999 --    79 C    0.972
    83   6 C    3.984 --    85 C    1.932    79 C    0.985    88 H    0.962
    84   6 C    3.984 --    81 C    1.934    80 C    0.985    89 H    0.968
    85   6 C    3.984 --    83 C    1.932    80 C    0.986    90 H    0.965
    86   1 H    0.999 --    80 C    0.971
    87   1 H    0.999 --    81 C    0.968
    88   1 H    0.999 --    83 C    0.962
    89   1 H    0.999 --    84 C    0.968
    90   1 H    0.999 --    85 C    0.965
    91   6 C    3.991 --    92 C    0.986    93 C    0.985    95 C    0.976
                            94 H    0.968
    92   6 C    3.984 --    96 C    1.934    91 C    0.986    97 H    0.967
    93   6 C    3.984 --    99 C    1.927    91 C    0.985    98 H    0.965
    94   1 H    0.999 --    91 C    0.968
    95   6 C    3.991 --    91 C    0.976   100 C    0.976   101 H    0.974
                           102 H    0.970
    96   6 C    3.984 --    92 C    1.934   100 C    0.986   103 H    0.970
    97   1 H    0.999 --    92 C    0.967
    98   1 H    0.999 --    93 C    0.965
    99   6 C    3.983 --    93 C    1.927   100 C    0.987   104 H    0.969
   100   6 C    3.991 --    99 C    0.987    96 C    0.986    95 C    0.976
                           105 H    0.972
   101   1 H    0.999 --    95 C    0.974
   102   1 H    0.999 --    95 C    0.970
   103   1 H    0.999 --    96 C    0.970
   104   1 H    0.999 --    99 C    0.969
   105   1 H    0.999 --   100 C    0.972
   106   1 H    0.999 --   107 C    0.969
   107   6 C    3.990 --   108 C    0.986   109 C    0.986   110 C    0.976
                           106 H    0.969
   108   6 C    3.984 --   111 C    1.935   107 C    0.986   112 H    0.967
   109   6 C    3.984 --   114 C    1.934   107 C    0.986   113 H    0.965
   110   6 C    3.992 --   116 H    0.980   117 H    0.978   115 C    0.976
                           107 C    0.976
   111   6 C    3.984 --   108 C    1.935   115 C    0.986   118 H    0.970
   112   1 H    0.999 --   108 C    0.967
   113   1 H    0.999 --   109 C    0.965
   114   6 C    3.984 --   109 C    1.934   115 C    0.986   119 H    0.970
   115   6 C    3.991 --   114 C    0.986   111 C    0.986   110 C    0.976
                           120 H    0.975
   116   1 H    0.999 --   110 C    0.980
   117   1 H    0.999 --   110 C    0.978
   118   1 H    0.999 --   111 C    0.970
   119   1 H    0.999 --   114 C    0.970
   120   1 H    0.999 --   115 C    0.975
   121   6 C    3.991 --   125 C    0.976   123 C    0.976   124 H    0.973
                           122 H    0.971
   122   1 H    0.999 --   121 C    0.971
   123   6 C    3.990 --   126 C    0.986   128 C    0.985   121 C    0.976
                           127 H    0.967
   124   1 H    0.999 --   121 C    0.973
   125   6 C    3.990 --   130 C    0.986   129 C    0.985   121 C    0.976
                           131 H    0.971
   126   6 C    3.983 --   129 C    1.932   123 C    0.986   132 H    0.963
   127   1 H    0.999 --   123 C    0.967
   128   6 C    3.983 --   130 C    1.934   123 C    0.985   133 H    0.963
   129   6 C    3.983 --   126 C    1.932   125 C    0.985   134 H    0.969
   130   6 C    3.984 --   128 C    1.934   125 C    0.986   135 H    0.970
   131   1 H    0.999 --   125 C    0.971
   132   1 H    0.999 --   126 C    0.963
   133   1 H    0.999 --   128 C    0.963
   134   1 H    0.999 --   129 C    0.969
   135   1 H    0.999 --   130 C    0.970
   136   1 H    0.999 --   137 C    0.967
   137   6 C    3.984 --   139 C    1.934   138 C    0.986   136 H    0.967
   138   6 C    3.991 --   140 C    0.986   137 C    0.986   141 C    0.976
                           142 H    0.974
   139   6 C    3.984 --   137 C    1.934   143 C    0.986   144 H    0.963
   140   6 C    3.984 --   145 C    1.934   138 C    0.986   146 H    0.969
   141   6 C    3.992 --   147 H    0.980   148 H    0.980   138 C    0.976
                           143 C    0.976
   142   1 H    0.999 --   138 C    0.974
   143   6 C    3.991 --   139 C    0.986   145 C    0.986   141 C    0.976
                           149 H    0.975
   144   1 H    0.999 --   139 C    0.963
   145   6 C    3.984 --   140 C    1.934   143 C    0.986   150 H    0.969
   146   1 H    0.999 --   140 C    0.969
   147   1 H    0.999 --   141 C    0.980
   148   1 H    0.999 --   141 C    0.980
   149   1 H    0.999 --   143 C    0.975
   150   1 H    0.999 --   145 C    0.969
   151   6 C    3.990 --   155 C    0.986   152 C    0.986   153 C    0.976
                           154 H    0.972
   152   6 C    3.983 --   156 C    1.932   151 C    0.986   157 H    0.961
   153   6 C    3.992 --   160 H    0.980   158 H    0.980   159 C    0.976
                           151 C    0.976
   154   1 H    0.999 --   151 C    0.972
   155   6 C    3.984 --   161 C    1.932   151 C    0.986   162 H    0.961
   156   6 C    3.984 --   152 C    1.932   159 C    0.986   163 H    0.966
   157   1 H    0.999 --   152 C    0.961
   158   1 H    0.999 --   153 C    0.980
   159   6 C    3.990 --   156 C    0.986   161 C    0.986   153 C    0.976
                           164 H    0.974
   160   1 H    0.999 --   153 C    0.980
   161   6 C    3.984 --   155 C    1.932   159 C    0.986   165 H    0.966
   162   1 H    0.999 --   155 C    0.961
   163   1 H    0.999 --   156 C    0.966
   164   1 H    0.999 --   159 C    0.974
   165   1 H    0.999 --   161 C    0.966
   166   6 C    3.990 --   170 C    0.986   167 C    0.986   168 C    0.976
                           169 H    0.968
   167   6 C    3.984 --   171 C    1.933   166 C    0.986   172 H    0.962
   168   6 C    3.992 --   175 H    0.978   173 H    0.978   174 C    0.976
                           166 C    0.976
   169   1 H    0.999 --   166 C    0.968
   170   6 C    3.984 --   176 C    1.933   166 C    0.986   177 H    0.962
   171   6 C    3.984 --   167 C    1.933   174 C    0.986   178 H    0.968
   172   1 H    0.999 --   167 C    0.962
   173   1 H    0.999 --   168 C    0.978
   174   6 C    3.990 --   171 C    0.986   176 C    0.986   168 C    0.976
                           179 H    0.975
   175   1 H    0.999 --   168 C    0.978
   176   6 C    3.984 --   170 C    1.933   174 C    0.986   180 H    0.968
   177   1 H    0.999 --   170 C    0.962
   178   1 H    0.999 --   171 C    0.968
   179   1 H    0.999 --   174 C    0.975
   180   1 H    0.999 --   176 C    0.968
   181   1 H    0.999 --   182 C    0.963
   182   6 C    3.984 --   184 C    1.934   183 C    0.986   181 H    0.963
   183   6 C    3.990 --   182 C    0.986   185 C    0.986   186 C    0.976
                           187 H    0.969
   184   6 C    3.984 --   182 C    1.934   188 C    0.986   189 H    0.970
   185   6 C    3.984 --   190 C    1.936   183 C    0.986   191 H    0.969
   186   6 C    3.992 --   192 H    0.978   193 H    0.978   188 C    0.976
                           183 C    0.976
   187   1 H    0.999 --   183 C    0.969
   188   6 C    3.991 --   190 C    0.986   184 C    0.986   186 C    0.976
                           194 H    0.975
   189   1 H    0.999 --   184 C    0.970
   190   6 C    3.984 --   185 C    1.936   188 C    0.986   195 H    0.970
   191   1 H    0.999 --   185 C    0.969
   192   1 H    0.999 --   186 C    0.978
   193   1 H    0.999 --   186 C    0.978
   194   1 H    0.999 --   188 C    0.975
   195   1 H    0.999 --   190 C    0.970
   196   6 C    3.991 --   197 C    0.986   198 C    0.985   200 C    0.975
                           199 H    0.968
   197   6 C    3.984 --   201 C    1.932   196 C    0.986   202 H    0.965
   198   6 C    3.984 --   204 C    1.933   196 C    0.985   203 H    0.968
   199   1 H    0.999 --   196 C    0.968
   200   6 C    3.991 --   205 C    0.976   196 C    0.975   206 H    0.974
                           207 H    0.971
   201   6 C    3.984 --   197 C    1.932   205 C    0.986   208 H    0.970
   202   1 H    0.999 --   197 C    0.965
   203   1 H    0.999 --   198 C    0.968
   204   6 C    3.984 --   198 C    1.933   205 C    0.987   209 H    0.970
   205   6 C    3.991 --   204 C    0.987   201 C    0.986   200 C    0.976
                           210 H    0.972
   206   1 H    0.999 --   200 C    0.974
   207   1 H    0.999 --   200 C    0.971
   208   1 H    0.999 --   201 C    0.970
   209   1 H    0.999 --   204 C    0.970
   210   1 H    0.999 --   205 C    0.972
   211   1 H    0.999 --   212 C    0.974
   212   6 C    3.992 --   215 C    0.976   214 C    0.976   211 H    0.974
                           213 H    0.973
   213   1 H    0.999 --   212 C    0.973
   214   6 C    3.991 --   216 C    0.986   217 C    0.986   212 C    0.976
                           218 H    0.974
   215   6 C    3.991 --   220 C    0.987   219 C    0.986   212 C    0.976
                           221 H    0.972
   216   6 C    3.984 --   219 C    1.934   214 C    0.986   222 H    0.970
   217   6 C    3.984 --   220 C    1.936   214 C    0.986   223 H    0.970
   218   1 H    0.999 --   214 C    0.974
   219   6 C    3.985 --   216 C    1.934   215 C    0.986   224 H    0.970
   220   6 C    3.984 --   217 C    1.936   215 C    0.987   225 H    0.970
   221   1 H    0.999 --   215 C    0.972
   222   1 H    0.999 --   216 C    0.970
   223   1 H    0.999 --   217 C    0.970
   224   1 H    0.999 --   219 C    0.970
   225   1 H    0.999 --   220 C    0.970
   226   1 H    0.999 --   227 C    0.973
   227   6 C    3.992 --   228 H    0.980   229 C    0.977   230 C    0.976
                           226 H    0.973
   228   1 H    0.999 --   227 C    0.980
   229   6 C    3.990 --   231 C    0.986   233 C    0.985   227 C    0.977
                           232 H    0.972
   230   6 C    3.990 --   235 C    0.986   234 C    0.986   227 C    0.976
                           236 H    0.971
   231   6 C    3.983 --   234 C    1.931   229 C    0.986   237 H    0.961
   232   1 H    0.999 --   229 C    0.972
   233   6 C    3.984 --   235 C    1.934   229 C    0.985   238 H    0.968
   234   6 C    3.984 --   231 C    1.931   230 C    0.986   239 H    0.965
   235   6 C    3.984 --   233 C    1.934   230 C    0.986   240 H    0.969
   236   1 H    0.999 --   230 C    0.971
   237   1 H    0.999 --   231 C    0.961
   238   1 H    0.999 --   233 C    0.968
   239   1 H    0.999 --   234 C    0.965
   240   1 H    0.999 --   235 C    0.969
   241   6 C    3.990 --   242 C    0.986   243 C    0.986   245 C    0.976
                           244 H    0.967
   242   6 C    3.984 --   246 C    1.933   241 C    0.986   247 H    0.963
   243   6 C    3.984 --   249 C    1.933   241 C    0.986   248 H    0.968
   244   1 H    0.999 --   241 C    0.967
   245   6 C    3.992 --   252 H    0.978   250 C    0.976   241 C    0.976
                           251 H    0.975
   246   6 C    3.984 --   242 C    1.933   250 C    0.985   253 H    0.970
   247   1 H    0.999 --   242 C    0.963
   248   1 H    0.999 --   243 C    0.968
   249   6 C    3.984 --   243 C    1.933   250 C    0.987   254 H    0.970
   250   6 C    3.991 --   249 C    0.987   246 C    0.985   245 C    0.976
                           255 H    0.975
   251   1 H    0.999 --   245 C    0.975
   252   1 H    0.999 --   245 C    0.978
   253   1 H    0.999 --   246 C    0.970
   254   1 H    0.999 --   249 C    0.970
   255   1 H    0.999 --   250 C    0.975
   256   6 C    3.992 --   259 H    0.979   258 C    0.976   260 C    0.976
                           257 H    0.971
   257   1 H    0.999 --   256 C    0.971
   258   6 C    3.990 --   261 C    0.986   263 C    0.986   256 C    0.976
                           262 H    0.969
   259   1 H    0.999 --   256 C    0.979
   260   6 C    3.990 --   265 C    0.986   264 C    0.986   256 C    0.976
                           266 H    0.972
   261   6 C    3.983 --   264 C    1.923   258 C    0.986   267 H    0.960
   262   1 H    0.999 --   258 C    0.969
   263   6 C    3.984 --   265 C    1.935   258 C    0.986   268 H    0.968
   264   6 C    3.983 --   261 C    1.923   260 C    0.986   269 H    0.967
   265   6 C    3.984 --   263 C    1.935   260 C    0.986   270 H    0.970
   266   1 H    0.999 --   260 C    0.972
   267   1 H    0.999 --   261 C    0.960
   268   1 H    0.999 --   263 C    0.968
   269   1 H    0.999 --   264 C    0.967
   270   1 H    0.999 --   265 C    0.970
   271   1 H    0.999 --   272 C    0.966
   272   6 C    3.984 --   273 C    1.934   274 C    0.986   271 H    0.966
   273   6 C    3.983 --   272 C    1.934   275 C    0.986   276 H    0.963
   274   6 C    3.991 --   278 C    0.986   272 C    0.986   277 C    0.976
                           279 H    0.974
   275   6 C    3.991 --   281 C    0.987   273 C    0.986   277 C    0.976
                           280 H    0.975
   276   1 H    0.999 --   273 C    0.963
   277   6 C    3.992 --   282 H    0.980   283 H    0.980   274 C    0.976
                           275 C    0.976
   278   6 C    3.984 --   281 C    1.934   274 C    0.986   284 H    0.969
   279   1 H    0.999 --   274 C    0.974
   280   1 H    0.999 --   275 C    0.975
   281   6 C    3.985 --   278 C    1.934   275 C    0.987   285 H    0.969
   282   1 H    0.999 --   277 C    0.980
   283   1 H    0.999 --   277 C    0.980
   284   1 H    0.999 --   278 C    0.969
   285   1 H    0.999 --   281 C    0.969
   286   6 C    3.990 --   290 C    0.987   287 C    0.985   288 C    0.976
                           289 H    0.969
   287   6 C    3.983 --   291 C    1.932   286 C    0.985   292 H    0.959
   288   6 C    3.992 --   295 H    0.978   293 H    0.978   294 C    0.976
                           286 C    0.976
   289   1 H    0.999 --   286 C    0.969
   290   6 C    3.985 --   296 C    1.934   286 C    0.987   297 H    0.969
   291   6 C    3.984 --   287 C    1.932   294 C    0.986   298 H    0.966
   292   1 H    0.999 --   287 C    0.959
   293   1 H    0.999 --   288 C    0.978
   294   6 C    3.991 --   296 C    0.986   291 C    0.986   288 C    0.976
                           299 H    0.974
   295   1 H    0.999 --   288 C    0.978
   296   6 C    3.984 --   290 C    1.934   294 C    0.986   300 H    0.969
   297   1 H    0.999 --   290 C    0.969
   298   1 H    0.999 --   291 C    0.966
   299   1 H    0.999 --   294 C    0.974
   300   1 H    0.999 --   296 C    0.969
   301   1 H    0.999 --   302 C    0.963
   302   6 C    3.984 --   304 C    1.934   303 C    0.986   301 H    0.963
   303   6 C    3.990 --   307 C    0.987   302 C    0.986   305 C    0.976
                           306 H    0.969
   304   6 C    3.984 --   302 C    1.934   309 C    0.986   308 H    0.970
   305   6 C    3.992 --   311 H    0.978   310 H    0.978   309 C    0.976
                           303 C    0.976
   306   1 H    0.999 --   303 C    0.969
   307   6 C    3.985 --   312 C    1.936   303 C    0.987   313 H    0.969
   308   1 H    0.999 --   304 C    0.970
   309   6 C    3.991 --   304 C    0.986   312 C    0.986   305 C    0.976
                           314 H    0.975
   310   1 H    0.999 --   305 C    0.978
   311   1 H    0.999 --   305 C    0.978
   312   6 C    3.984 --   307 C    1.936   309 C    0.986   315 H    0.970
   313   1 H    0.999 --   307 C    0.969
   314   1 H    0.999 --   309 C    0.975
   315   1 H    0.999 --   312 C    0.970
 ---------------------------------------------------------------------------

Topologies differ in total number of bonds
Writing topology from bond orders to xtbtopo.mol

molecular dipole:
                 x           y           z       tot (Debye)
 q only:        0.207       0.385      -0.579
   full:        0.171       0.134      -0.522       1.436
molecular quadrupole (traceless):
                xx          xy          yy          xz          yz          zz
 q only:       -3.463       3.596       5.350       1.340      -9.891      -1.886
  q+dip:       -7.954       7.115       8.968      -2.391     -17.987      -1.014
   full:       -5.143       4.341       6.522      -0.533     -11.506      -1.379


           -------------------------------------------------
          | TOTAL ENERGY             -398.949919030999 Eh   |
          | GRADIENT NORM               0.346437584964 Eh/α |
          | HOMO-LUMO GAP               1.909739884569 eV   |
           -------------------------------------------------

------------------------------------------------------------------------
 * finished run on 2022/02/23 at 16:58:53.430     
------------------------------------------------------------------------
 total:
 * wall-time:     0 d,  0 h,  0 min,  5.497 sec
 *  cpu-time:     0 d,  0 h,  0 min,  5.486 sec
 * ratio c/w:     0.998 speedup
 SCF:
 * wall-time:     0 d,  0 h,  0 min,  4.324 sec
 *  cpu-time:     0 d,  0 h,  0 min,  4.322 sec
 * ratio c/w:     1.000 speedup

