
     Program PWSCF v.5.0.2 (svn rev. 9392) starts on  7Dec2016 at 19:20:43 

     This program is part of the open-source Quantum ESPRESSO suite
     for quantum simulation of materials; please cite
         "P. Giannozzi et al., J. Phys.:Condens. Matter 21 395502 (2009);
          URL http://www.quantum-espresso.org", 
     in publications or presentations arising from this work. More details at
     http://www.quantum-espresso.org/quote.php

     Parallel version (MPI), running on     1 processors

     Current dimensions of program PWSCF are:
     Max number of different atomic species (ntypx) = 10
     Max number of k-points (npk) =  40000
     Max angular momentum in pseudopotentials (lmaxx) =  3
     Waiting for input...
     Reading input from standard input

     IMPORTANT: XC functional enforced from input :
     Exchange-correlation      = PBE ( 1 4 3 4 0)
     EXX-fraction              =        0.00
     Any further DFT definition will be discarded
     Please, verify this is what you really want

               file C.pbe-rrkjus.UPF: wavefunction(s)  2S 2P renormalized
               file H.pbe-rrkjus.UPF: wavefunction(s)  1S renormalized
               file O.pbe-rrkjus.UPF: wavefunction(s)  2S renormalized
               file N.pbe-rrkjus.UPF: wavefunction(s)  2S renormalized

     -------------------------------------
     Parameters for Dispersion Correction:
     -------------------------------------
       atom      VdW radius       C_6     

        C          2.744         60.710
        H          1.892          4.857
        O          2.536         24.284
        N          2.640         42.670

     Subspace diagonalization in iterative solution of the eigenvalue problem:
     a serial algorithm will be used

 
     G-vector sticks info
     --------------------
     sticks:   dense  smooth     PW     G-vecs:    dense   smooth      PW
     Sum        4249    4249   1171               209979   209979   30419
 


     bravais-lattice index     =            0
     lattice parameter (alat)  =      22.9035  a.u.
     unit-cell volume          =    9458.7131 (a.u.)^3
     number of atoms/cell      =          148
     number of atomic types    =            4
     number of electrons       =       408.00
     number of Kohn-Sham states=          204
     kinetic-energy cutoff     =      30.0000  Ry
     charge density cutoff     =     120.0000  Ry
     convergence threshold     =      1.0E-07
     mixing beta               =       0.7000
     number of iterations used =            8  plain     mixing
     Exchange-correlation      = PBE ( 1 4 3 4 0)
     EXX-fraction              =        0.00
     nstep                     =           50


     celldm(1)=  22.903481  celldm(2)=   0.000000  celldm(3)=   0.000000
     celldm(4)=   0.000000  celldm(5)=   0.000000  celldm(6)=   0.000000

     crystal axes: (cart. coord. in units of alat)
               a(1) = (   1.000000   0.000000   0.000000 )  
               a(2) = (   0.000000   0.848597   0.000000 )  
               a(3) = (  -0.451487   0.000000   0.927739 )  

     reciprocal axes: (cart. coord. in units 2 pi/alat)
               b(1) = (  1.000000  0.000000  0.486653 )  
               b(2) = (  0.000000  1.178415  0.000000 )  
               b(3) = (  0.000000  0.000000  1.077889 )  


     PseudoPot. # 1 for C  read from file:
     /data/home/btx156/espresso/pseudo/C.pbe-rrkjus.UPF
     MD5 check sum: 00fb224312de0c5b6853bd333518df6f
     Pseudo is Ultrasoft, Zval =  4.0
     Generated by new atomic code, or converted to UPF format
     Using radial grid of  627 points,  4 beta functions with: 
                l(1) =   0
                l(2) =   0
                l(3) =   1
                l(4) =   1
     Q(r) pseudized with 0 coefficients 


     PseudoPot. # 2 for H  read from file:
     /data/home/btx156/espresso/pseudo/H.pbe-rrkjus.UPF
     MD5 check sum: 7cc9d459525c9a0585f487a71c3c9563
     Pseudo is Ultrasoft, Zval =  1.0
     Generated by new atomic code, or converted to UPF format
     Using radial grid of 1061 points,  2 beta functions with: 
                l(1) =   0
                l(2) =   0
     Q(r) pseudized with 0 coefficients 


     PseudoPot. # 3 for O  read from file:
     /data/home/btx156/espresso/pseudo/O.pbe-rrkjus.UPF
     MD5 check sum: 390ba29e75625707450f3bd3f0eb6be9
     Pseudo is Ultrasoft, Zval =  6.0
     Generated by new atomic code, or converted to UPF format
     Using radial grid of 1269 points,  4 beta functions with: 
                l(1) =   0
                l(2) =   0
                l(3) =   1
                l(4) =   1
     Q(r) pseudized with 0 coefficients 


     PseudoPot. # 4 for N  read from file:
     /data/home/btx156/espresso/pseudo/N.pbe-rrkjus.UPF
     MD5 check sum: 0c3fbe5807a93f9ba59d5a7019aa238b
     Pseudo is Ultrasoft, Zval =  5.0
     Generated by new atomic code, or converted to UPF format
     Using radial grid of 1257 points,  4 beta functions with: 
                l(1) =   0
                l(2) =   0
                l(3) =   1
                l(4) =   1
     Q(r) pseudized with 0 coefficients 


     atomic species   valence    mass     pseudopotential
        C              4.00    12.00000     C ( 1.00)
        H              1.00     1.00790     H ( 1.00)
        O              6.00    15.99940     O ( 1.00)
        N              5.00    14.00670     N ( 1.00)

      4 Sym. Ops., with inversion, found ( 2 have fractional translation)



   Cartesian axes

     site n.     atom                  positions (alat units)
         1           C   tau(   1) = (   0.3987762   0.2860046   0.3758966  )
         2           C   tau(   2) = (   0.1497370   0.5625927   0.5518426  )
         3           C   tau(   3) = (   0.3754804   0.7103034   0.0879731  )
         4           C   tau(   4) = (   0.1730328   0.1382941   0.8397662  )
         5           C   tau(   5) = (   0.2962668   0.2331762   0.3532125  )
         6           C   tau(   6) = (   0.2522464   0.6154211   0.5745267  )
         7           C   tau(   7) = (   0.4779898   0.6574749   0.1106571  )
         8           C   tau(   8) = (   0.0705234   0.1911224   0.8170821  )
         9           C   tau(   9) = (   0.2831184   0.1664950   0.2590588  )
        10           C   tau(  10) = (   0.2653948   0.6821023   0.6686804  )
        11           C   tau(  11) = (   0.4911382   0.5907937   0.2048107  )
        12           C   tau(  12) = (   0.0573750   0.2578037   0.7229285  )
        13           C   tau(  13) = (   0.3723836   0.1513610   0.1846083  )
        14           C   tau(  14) = (   0.1761296   0.6972364   0.7431309  )
        15           C   tau(  15) = (   0.4018730   0.5756597   0.2792613  )
        16           C   tau(  16) = (   0.1466401   0.2729377   0.6484779  )
        17           C   tau(  17) = (   0.4733401   0.2045535   0.2053821  )
        18           C   tau(  18) = (   0.0751731   0.6440439   0.7223572  )
        19           C   tau(  19) = (   0.3009165   0.6288522   0.2584876  )
        20           C   tau(  20) = (   0.2475966   0.2197452   0.6692517  )
        21           C   tau(  21) = (   0.4905351   0.2729899   0.3001578  )
        22           C   tau(  22) = (   0.0579781   0.5756074   0.6275814  )
        23           C   tau(  23) = (   0.2837215   0.6972886   0.1637119  )
        24           C   tau(  24) = (   0.2647917   0.1513088   0.7640274  )
        25           C   tau(  25) = (   0.5980961   0.3299305   0.3213507  )
        26           C   tau(  26) = (  -0.0495829   0.5186669   0.6063886  )
        27           C   tau(  27) = (   0.1761605   0.7542291   0.1425189  )
        28           C   tau(  28) = (   0.3723527   0.0943682   0.7852204  )
        29           C   tau(  29) = (   0.6912616   0.3141345   0.2469888  )
        30           C   tau(  30) = (  -0.1427485   0.5344629   0.6807505  )
        31           C   tau(  31) = (   0.0829949   0.7384331   0.2168808  )
        32           C   tau(  32) = (   0.4655182   0.1101642   0.7108584  )
        33           C   tau(  33) = (   0.7909784   0.3690602   0.2624284  )
        34           C   tau(  34) = (  -0.2424653   0.4795372   0.6653109  )
        35           C   tau(  35) = (  -0.0167219   0.7933588   0.2014413  )
        36           C   tau(  36) = (   0.5652350   0.0552385   0.7262980  )
        37           C   tau(  37) = (   0.8916497   0.3554527   0.2000071  )
        38           C   tau(  38) = (  -0.3431365   0.4931447   0.7277322  )
        39           C   tau(  39) = (  -0.1173931   0.7797513   0.2638626  )
        40           C   tau(  40) = (   0.6659063   0.0688460   0.6638766  )
        41           C   tau(  41) = (   0.9055900   0.2759580   0.1131874  )
        42           C   tau(  42) = (  -0.3570768   0.5726394   0.8145518  )
        43           C   tau(  43) = (  -0.1313334   0.7002567   0.3506822  )
        44           C   tau(  44) = (   0.6798466   0.1483407   0.5770571  )
        45           C   tau(  45) = (   0.0059784   0.2631353   0.0580077  )
        46           C   tau(  46) = (   0.5425348   0.5854620   0.8697315  )
        47           C   tau(  47) = (   0.7682783   0.6874340   0.4058618  )
        48           C   tau(  48) = (  -0.2197650   0.1611634   0.5218774  )
        49           C   tau(  49) = (   0.0995210   0.3318364   0.0852130  )
        50           C   tau(  50) = (   0.4489923   0.5167609   0.8425262  )
        51           C   tau(  51) = (   0.6747357   0.7561351   0.3786567  )
        52           C   tau(  52) = (  -0.1262224   0.0924622   0.5490826  )
        53           C   tau(  53) = (   0.0872608   0.4106203   0.1734284  )
        54           C   tau(  54) = (   0.4612523   0.4379771   0.7543109  )
        55           C   tau(  55) = (   0.6869958   0.8349190   0.2904413  )
        56           C   tau(  56) = (  -0.1384826   0.0136784   0.6372979  )
        57           C   tau(  57) = (  -0.0138906   0.4210921   0.2280955  )
        58           C   tau(  58) = (   0.5624038   0.4275052   0.6996437  )
        59           C   tau(  59) = (   0.7881472   0.8453908   0.2357740  )
        60           C   tau(  60) = (  -0.2396341   0.0032066   0.6919652  )
        61           C   tau(  61) = (  -0.2438834   0.2401149   0.8659864  )
        62           C   tau(  62) = (   0.7923966   0.6084826   0.0617528  )
        63           C   tau(  63) = (   0.5666532   0.6644135   0.5256224  )
        64           C   tau(  64) = (  -0.0181400   0.1841838   0.4021168  )
        65           C   tau(  65) = (   0.2904491   0.3976011   0.0517267  )
        66           C   tau(  66) = (   0.2580641   0.4509963   0.8760126  )
        67           C   tau(  67) = (   0.4838075   0.8218998   0.4121430  )
        68           C   tau(  68) = (   0.0647056   0.0266976   0.5155962  )
        69           H   tau(  69) = (   0.2270325   0.2472688   0.4126854  )
        70           H   tau(  70) = (   0.3214806   0.6013285   0.5150539  )
        71           H   tau(  71) = (   0.5472241   0.6715675   0.0511843  )
        72           H   tau(  72) = (   0.0012891   0.1770298   0.8765549  )
        73           H   tau(  73) = (   0.2019196   0.1256040   0.2423334  )
        74           H   tau(  74) = (   0.3465936   0.7229934   0.6854058  )
        75           H   tau(  75) = (   0.5723370   0.5499027   0.2215363  )
        76           H   tau(  76) = (  -0.0238238   0.2986947   0.7062030  )
        77           H   tau(  77) = (   0.3630224   0.0977315   0.1101480  )
        78           H   tau(  78) = (   0.1854907   0.7508658   0.8175912  )
        79           H   tau(  79) = (   0.4112342   0.5220302   0.3537217  )
        80           H   tau(  80) = (   0.1372790   0.3265671   0.5740176  )
        81           H   tau(  81) = (   0.5417799   0.1917387   0.1450356  )
        82           H   tau(  82) = (   0.0067332   0.6568586   0.7827037  )
        83           H   tau(  83) = (   0.2324766   0.6160374   0.3188341  )
        84           H   tau(  84) = (   0.3160365   0.2325599   0.6089052  )
        85           H   tau(  85) = (   0.6832074   0.2544969   0.1772016  )
        86           H   tau(  86) = (  -0.1346943   0.5941005   0.7505377  )
        87           H   tau(  87) = (   0.0910491   0.6787956   0.2866680  )
        88           H   tau(  88) = (   0.4574640   0.1698018   0.6410712  )
        89           H   tau(  89) = (   0.7945701   0.4295348   0.3326046  )
        90           H   tau(  90) = (  -0.2460569   0.4190626   0.5951346  )
        91           H   tau(  91) = (  -0.0203135   0.8538334   0.1312650  )
        92           H   tau(  92) = (   0.5688267  -0.0052361   0.7964742  )
        93           H   tau(  93) = (   0.8349826   0.2216178   0.0886460  )
        94           H   tau(  94) = (  -0.2864695   0.6269796   0.8390932  )
        95           H   tau(  95) = (  -0.0607261   0.6459165   0.3752236  )
        96           H   tau(  96) = (   0.6092392   0.2026809   0.5525156  )
        97           H   tau(  97) = (   0.0124754   0.1998116  -0.0086212  )
        98           H   tau(  98) = (   0.5360378   0.6487857   0.9363604  )
        99           H   tau(  99) = (   0.7617812   0.6241102   0.4724909  )
       100           H   tau( 100) = (  -0.2132680   0.2244870   0.4552484  )
       101           H   tau( 101) = (   0.1583630   0.4634635   0.1989427  )
       102           H   tau( 102) = (   0.3901501   0.3851338   0.7287966  )
       103           H   tau( 103) = (   0.6158936   0.0391648   0.2649269  )
       104           H   tau( 104) = (  -0.0673804   0.8094325   0.6628123  )
       105           H   tau( 105) = (  -0.0226269   0.4823456   0.2967524  )
       106           H   tau( 106) = (   0.5711401   0.3662518   0.6309869  )
       107           H   tau( 107) = (   0.7968835   0.0580469   0.1671173  )
       108           H   tau( 108) = (  -0.2483703   0.7905505   0.7606220  )
       109           H   tau( 109) = (  -0.2592220   0.1539959   0.8977705  )
       110           H   tau( 110) = (   0.8077352   0.6946015   0.0299687  )
       111           H   tau( 111) = (   0.5819918   0.5782946   0.4938384  )
       112           H   tau( 112) = (  -0.0334786   0.2703028   0.4339008  )
       113           H   tau( 113) = (  -0.1585513   0.2439028   0.8302438  )
       114           H   tau( 114) = (   0.7070644   0.6046946   0.0974955  )
       115           H   tau( 115) = (   0.4813210   0.6682015   0.5613651  )
       116           H   tau( 116) = (   0.0671922   0.1803959   0.3663742  )
       117           H   tau( 117) = (  -0.3047958   0.2570247   0.7976145  )
       118           H   tau( 118) = (   0.8533090   0.5915726   0.1301247  )
       119           H   tau( 119) = (   0.6275656   0.6813234   0.5939944  )
       120           H   tau( 120) = (  -0.0790524   0.1672739   0.3337448  )
       121           H   tau( 121) = (   0.2645172   0.4865918   0.0418934  )
       122           H   tau( 122) = (   0.2839960   0.3620055   0.8858458  )
       123           H   tau( 123) = (   0.5097394   0.0622931   0.4219763  )
       124           H   tau( 124) = (   0.0387738   0.7863042   0.5057630  )
       125           H   tau( 125) = (   0.3596201   0.3802123  -0.0074595  )
       126           H   tau( 126) = (   0.1888930   0.4683851   0.9351988  )
       127           H   tau( 127) = (   0.4146364   0.8045109   0.4713291  )
       128           H   tau( 128) = (   0.1338767   0.0440864   0.4564101  )
       129           H   tau( 129) = (   0.3222812   0.3864138   0.1385677  )
       130           H   tau( 130) = (   0.2262320   0.4621835   0.7891716  )
       131           H   tau( 131) = (   0.4519754   0.8107125   0.3253019  )
       132           H   tau( 132) = (   0.0965378   0.0378849   0.6024373  )
       133           H   tau( 133) = (   0.4900598   0.3804552   0.4654416  )
       134           H   tau( 134) = (   0.0584535   0.4681421   0.4622977  )
       135           H   tau( 135) = (  -0.1672899   0.8047539   0.9261672  )
       136           H   tau( 136) = (   0.7158032   0.0438435   0.0015720  )
       137           N   tau( 137) = (   0.1980204   0.3221865   0.0276071  )
       138           N   tau( 138) = (   0.3504928   0.5264109   0.9001321  )
       139           N   tau( 139) = (   0.5762362   0.7464852   0.4362625  )
       140           N   tau( 140) = (  -0.0277230   0.1021122   0.4914767  )
       141           O   tau( 141) = (   0.4046269   0.3486378   0.4720176  )
       142           O   tau( 142) = (   0.1438863   0.4999596   0.4557216  )
       143           O   tau( 143) = (  -0.0818572   0.7729365   0.9195913  )
       144           O   tau( 144) = (   0.6303703   0.0756609   0.0081479  )
       145           O   tau( 145) = (   0.6096283   0.3951700   0.4097689  )
       146           O   tau( 146) = (  -0.0611151   0.4534274   0.5179703  )
       147           O   tau( 147) = (   0.1646283   0.8194686   0.0541006  )
       148           O   tau( 148) = (   0.3838849   0.0291287   0.8736386  )

     number of k points=     8
                       cart. coord. in units 2pi/alat
        k(    1) = (   0.0000000   0.0000000   0.0000000), wk =   0.1666667
        k(    2) = (   0.0000000   0.0000000  -0.5389445), wk =   0.1666667
        k(    3) = (   0.0000000   0.3928051   0.0000000), wk =   0.3333333
        k(    4) = (   0.0000000   0.3928051  -0.5389445), wk =   0.3333333
        k(    5) = (  -0.5000000   0.0000000  -0.2433264), wk =   0.1666667
        k(    6) = (  -0.5000000   0.0000000  -0.7822709), wk =   0.1666667
        k(    7) = (  -0.5000000   0.3928051  -0.2433264), wk =   0.3333333
        k(    8) = (  -0.5000000   0.3928051  -0.7822709), wk =   0.3333333

     Dense  grid:   209979 G-vectors     FFT dimensions: (  80,  72,  90)

     Largest allocated arrays     est. size (Mb)     dimensions
        Kohn-Sham Wavefunctions        81.79 Mb     (  26276,  204)
        NL pseudopotentials           311.13 Mb     (  26276,  776)
        Each V/rho on FFT grid          7.91 Mb     ( 518400)
        Each G-vector array             1.60 Mb     ( 209979)
        G-vector shells                 0.41 Mb     (  53673)
     Largest temporary arrays     est. size (Mb)     dimensions
        Auxiliary wavefunctions       327.17 Mb     (  26276,  816)
        Each subspace H/S matrix       10.16 Mb     ( 816, 816)
        Each <psi_i|beta_j> matrix      2.42 Mb     (    776,  204)
        Arrays for rho mixing          63.28 Mb     ( 518400,   8)

     Initial potential from superposition of free atoms

     starting charge  401.45449, renormalised to  408.00000
     Starting wfc are  388 randomized atomic wfcs

     total cpu time spent up to now is      107.7 secs

     Self-consistent Calculation

     iteration #  1     ecut=    30.00 Ry     beta=0.70
     Davidson diagonalization with overlap
     ethr =  1.00E-02,  avg # of iterations =  2.0

     total cpu time spent up to now is      340.6 secs

     total energy              =   -1183.24709171 Ry
     Harris-Foulkes estimate   =   -1198.18099369 Ry
     estimated scf accuracy    <      23.39811184 Ry

     iteration #  2     ecut=    30.00 Ry     beta=0.70
     Davidson diagonalization with overlap
     ethr =  5.73E-03,  avg # of iterations =  3.0

     total cpu time spent up to now is      568.1 secs

     total energy              =   -1184.95822815 Ry
     Harris-Foulkes estimate   =   -1193.37865639 Ry
     estimated scf accuracy    <      15.42664342 Ry

     iteration #  3     ecut=    30.00 Ry     beta=0.70
     Davidson diagonalization with overlap
     ethr =  3.78E-03,  avg # of iterations =  4.0

     total cpu time spent up to now is      780.7 secs

     total energy              =   -1188.79877921 Ry
     Harris-Foulkes estimate   =   -1190.09661490 Ry
     estimated scf accuracy    <       2.66057134 Ry

     iteration #  4     ecut=    30.00 Ry     beta=0.70
     Davidson diagonalization with overlap
     ethr =  6.52E-04,  avg # of iterations =  3.8

     total cpu time spent up to now is      976.0 secs

     total energy              =   -1189.34422319 Ry
     Harris-Foulkes estimate   =   -1189.58511622 Ry
     estimated scf accuracy    <       0.50584205 Ry

     iteration #  5     ecut=    30.00 Ry     beta=0.70
     Davidson diagonalization with overlap
     ethr =  1.24E-04,  avg # of iterations =  5.0

     total cpu time spent up to now is     1172.2 secs

     total energy              =   -1189.44737104 Ry
     Harris-Foulkes estimate   =   -1189.47853627 Ry
     estimated scf accuracy    <       0.06984584 Ry

     iteration #  6     ecut=    30.00 Ry     beta=0.70
     Davidson diagonalization with overlap
     ethr =  1.71E-05,  avg # of iterations =  5.0

     total cpu time spent up to now is     1369.2 secs

     total energy              =   -1189.46302008 Ry
     Harris-Foulkes estimate   =   -1189.46711254 Ry
     estimated scf accuracy    <       0.00986112 Ry

     iteration #  7     ecut=    30.00 Ry     beta=0.70
     Davidson diagonalization with overlap
     ethr =  2.42E-06,  avg # of iterations =  5.0

     total cpu time spent up to now is     1566.7 secs

     total energy              =   -1189.46481768 Ry
     Harris-Foulkes estimate   =   -1189.46632165 Ry
     estimated scf accuracy    <       0.00382691 Ry

     iteration #  8     ecut=    30.00 Ry     beta=0.70
     Davidson diagonalization with overlap
     ethr =  9.38E-07,  avg # of iterations =  4.0

     total cpu time spent up to now is     1757.7 secs

     total energy              =   -1189.46556863 Ry
     Harris-Foulkes estimate   =   -1189.46569244 Ry
     estimated scf accuracy    <       0.00031113 Ry

     iteration #  9     ecut=    30.00 Ry     beta=0.70
     Davidson diagonalization with overlap
     ethr =  7.63E-08,  avg # of iterations =  4.0

     total cpu time spent up to now is     1959.6 secs

     total energy              =   -1189.46564145 Ry
     Harris-Foulkes estimate   =   -1189.46567021 Ry
     estimated scf accuracy    <       0.00006644 Ry

     iteration # 10     ecut=    30.00 Ry     beta=0.70
     Davidson diagonalization with overlap
     ethr =  1.63E-08,  avg # of iterations =  3.0

     total cpu time spent up to now is     2146.2 secs

     total energy              =   -1189.46565480 Ry
     Harris-Foulkes estimate   =   -1189.46565821 Ry
     estimated scf accuracy    <       0.00000752 Ry

     iteration # 11     ecut=    30.00 Ry     beta=0.70
     Davidson diagonalization with overlap
     ethr =  1.84E-09,  avg # of iterations =  4.0

     total cpu time spent up to now is     2345.9 secs

     total energy              =   -1189.46565668 Ry
     Harris-Foulkes estimate   =   -1189.46565715 Ry
     estimated scf accuracy    <       0.00000122 Ry

     iteration # 12     ecut=    30.00 Ry     beta=0.70
     Davidson diagonalization with overlap
     ethr =  2.99E-10,  avg # of iterations =  4.0

     total cpu time spent up to now is     2541.5 secs

     total energy              =   -1189.46565694 Ry
     Harris-Foulkes estimate   =   -1189.46565705 Ry
     estimated scf accuracy    <       0.00000029 Ry

     iteration # 13     ecut=    30.00 Ry     beta=0.70
     Davidson diagonalization with overlap
     ethr =  7.12E-11,  avg # of iterations =  4.0

     total cpu time spent up to now is     2730.3 secs

     End of self-consistent calculation

          k = 0.0000 0.0000 0.0000 ( 26273 PWs)   bands (ev):

   -19.6001 -19.5976 -19.5897 -19.5888 -18.5397 -18.5385 -18.5344 -18.5337
   -17.4823 -17.4787 -17.4684 -17.4658 -14.8931 -14.8693 -14.8652 -14.8539
   -14.8421 -14.8326 -14.8254 -14.8143 -13.4467 -13.4065 -13.4063 -13.3942
   -12.7335 -12.7283 -12.7200 -12.6951 -12.3380 -12.3078 -12.2707 -12.2328
   -12.0182 -12.0134 -11.9557 -11.9479 -11.8654 -11.8475 -11.8446 -11.8439
   -11.4608 -11.4530 -11.4153 -11.3837 -10.5109 -10.4988 -10.4920 -10.4791
    -9.6182  -9.6065  -9.5887  -9.5564  -8.9330  -8.9167  -8.8796  -8.8463
    -8.7172  -8.6612  -8.6109  -8.5702  -8.3846  -8.3347  -8.3267  -8.2913
    -7.8678  -7.7794  -7.7675  -7.7267  -7.0592  -7.0303  -7.0273  -6.9569
    -6.6942  -6.6185  -6.5947  -6.5017  -6.3335  -6.3258  -6.3168  -6.3081
    -6.1409  -6.0855  -6.0769  -6.0490  -5.6657  -5.6477  -5.6005  -5.5841
    -5.5559  -5.5240  -5.4632  -5.4403  -5.1812  -5.1329  -5.1166  -5.0554
    -5.0035  -4.9930  -4.9453  -4.9257  -4.8344  -4.7799  -4.7304  -4.6460
    -4.5583  -4.5451  -4.5265  -4.5220  -4.4824  -4.3532  -4.3414  -4.3073
    -4.2867  -4.1901  -4.1708  -4.1052  -4.0805  -4.0635  -4.0215  -3.9433
    -3.8978  -3.8717  -3.8497  -3.8098  -3.7768  -3.7698  -3.7608  -3.7351
    -3.4513  -3.4366  -3.4289  -3.4120  -3.3941  -3.3394  -3.2959  -3.2697
    -3.2418  -3.1832  -3.1190  -3.0756  -3.0727  -3.0163  -2.9977  -2.9919
    -2.9454  -2.9180  -2.9081  -2.8829  -2.8433  -2.8242  -2.8211  -2.7856
    -2.7540  -2.7097  -2.7007  -2.6839  -2.6285  -2.6205  -2.5907  -2.5765
    -2.5584  -2.5525  -2.5478  -2.4906  -2.1067  -2.0930  -1.9954  -1.9198
    -1.8706  -1.8215  -1.8161  -1.8109  -1.7238  -1.6487  -1.6343  -1.6317
    -1.5565  -1.5295  -1.4627  -1.2886  -0.4528  -0.4174  -0.4149  -0.3383
    -0.2821  -0.2166  -0.1950  -0.1302  -0.0969  -0.0621   0.0341   0.0361
     0.0685   0.1118   0.1200   0.1279   0.4624   0.4962   0.6103   0.6910
     1.2699   1.3220   1.4455   1.4932

          k = 0.0000 0.0000-0.5389 ( 26180 PWs)   bands (ev):

   -19.5989 -19.5988 -19.5892 -19.5892 -18.5391 -18.5391 -18.5340 -18.5340
   -17.4805 -17.4805 -17.4671 -17.4671 -14.8817 -14.8817 -14.8586 -14.8586
   -14.8386 -14.8386 -14.8189 -14.8189 -13.4392 -13.4392 -13.3881 -13.3881
   -12.7247 -12.7247 -12.7137 -12.7137 -12.3260 -12.3260 -12.2477 -12.2477
   -11.9884 -11.9884 -11.9800 -11.9800 -11.8550 -11.8550 -11.8463 -11.8463
   -11.4581 -11.4581 -11.3987 -11.3987 -10.5096 -10.5096 -10.4810 -10.4810
    -9.6122  -9.6122  -9.5659  -9.5659  -8.9119  -8.9119  -8.8834  -8.8834
    -8.6907  -8.6907  -8.5915  -8.5915  -8.3541  -8.3541  -8.3091  -8.3091
    -7.8507  -7.8507  -7.7199  -7.7199  -7.0728  -7.0728  -6.9702  -6.9702
    -6.6639  -6.6639  -6.5374  -6.5374  -6.3433  -6.3433  -6.3020  -6.3020
    -6.1236  -6.1236  -6.0613  -6.0613  -5.6341  -5.6341  -5.5945  -5.5945
    -5.4985  -5.4985  -5.4760  -5.4760  -5.1929  -5.1929  -5.0330  -5.0330
    -5.0109  -5.0108  -4.9509  -4.9509  -4.7930  -4.7930  -4.6616  -4.6616
    -4.6155  -4.6155  -4.5325  -4.5325  -4.4308  -4.4308  -4.3263  -4.3263
    -4.2467  -4.2467  -4.1036  -4.1036  -4.0505  -4.0505  -4.0015  -4.0015
    -3.8970  -3.8970  -3.8224  -3.8224  -3.8047  -3.8047  -3.7060  -3.7060
    -3.4640  -3.4640  -3.4287  -3.4287  -3.3392  -3.3392  -3.2944  -3.2944
    -3.1858  -3.1858  -3.1241  -3.1241  -3.0353  -3.0353  -3.0126  -3.0126
    -2.9398  -2.9398  -2.8718  -2.8718  -2.8541  -2.8541  -2.8207  -2.8207
    -2.7357  -2.7357  -2.6686  -2.6686  -2.6055  -2.6055  -2.5866  -2.5866
    -2.5586  -2.5586  -2.4990  -2.4990  -2.0356  -2.0355  -2.0040  -2.0040
    -1.8295  -1.8295  -1.8215  -1.8215  -1.7125  -1.7125  -1.6366  -1.6366
    -1.5719  -1.5719  -1.3590  -1.3590  -0.4344  -0.4344  -0.3841  -0.3840
    -0.2756  -0.2756  -0.1318  -0.1318  -0.0437  -0.0437   0.0178   0.0178
     0.0841   0.0841   0.1311   0.1311   0.4791   0.4791   0.6460   0.6460
     1.2951   1.2951   1.4566   1.4566

          k = 0.0000 0.3928 0.0000 ( 26230 PWs)   bands (ev):

   -19.5995 -19.5983 -19.5894 -19.5890 -18.5394 -18.5388 -18.5342 -18.5338
   -17.4816 -17.4798 -17.4676 -17.4663 -14.8856 -14.8713 -14.8660 -14.8585
   -14.8375 -14.8292 -14.8285 -14.8193 -13.4382 -13.4190 -13.4020 -13.3950
   -12.7328 -12.7309 -12.7117 -12.6999 -12.3300 -12.3151 -12.2623 -12.2433
   -12.0175 -12.0151 -11.9522 -11.9483 -11.8624 -11.8540 -11.8435 -11.8431
   -11.4586 -11.4548 -11.4075 -11.3917 -10.5085 -10.5024 -10.4884 -10.4819
    -9.6117  -9.5965  -9.5918  -9.5672  -8.9299  -8.9218  -8.8737  -8.8572
    -8.6925  -8.6408  -8.6400  -8.5957  -8.3764  -8.3574  -8.3035  -8.2923
    -7.8481  -7.8111  -7.7425  -7.7287  -7.0645  -7.0585  -6.9971  -6.9700
    -6.6726  -6.6207  -6.5845  -6.5272  -6.3256  -6.3164  -6.3121  -6.3037
    -6.1303  -6.0977  -6.0771  -6.0588  -5.6584  -5.6518  -5.5870  -5.5805
    -5.5503  -5.5365  -5.4594  -5.4460  -5.1608  -5.1271  -5.0954  -5.0854
    -5.0235  -5.0154  -4.9613  -4.9603  -4.7761  -4.7419  -4.7347  -4.6603
    -4.6584  -4.5852  -4.5437  -4.5258  -4.3940  -4.3486  -4.3038  -4.2453
    -4.2382  -4.1677  -4.1632  -4.1615  -4.1378  -4.0735  -4.0378  -3.9839
    -3.8728  -3.8677  -3.8401  -3.8233  -3.7879  -3.7748  -3.7708  -3.7548
    -3.4247  -3.4100  -3.4043  -3.3978  -3.3811  -3.3508  -3.2599  -3.2418
    -3.2309  -3.1924  -3.1743  -3.1155  -3.0711  -3.0633  -2.9877  -2.9634
    -2.9475  -2.9212  -2.9117  -2.9010  -2.8337  -2.8252  -2.8090  -2.7933
    -2.7478  -2.7430  -2.7179  -2.7019  -2.6257  -2.6255  -2.5698  -2.5599
    -2.5428  -2.5399  -2.5029  -2.4938  -2.0997  -2.0990  -1.9509  -1.9109
    -1.8646  -1.8614  -1.8141  -1.7786  -1.7229  -1.6716  -1.6368  -1.6294
    -1.5643  -1.5636  -1.4072  -1.3250  -0.4388  -0.4219  -0.3992  -0.3385
    -0.3155  -0.2561  -0.1704  -0.1240  -0.0840  -0.0656   0.0271   0.0503
     0.0520   0.0885   0.1267   0.1280   0.4955   0.5423   0.5688   0.6393
     1.2887   1.3145   1.4562   1.4814

          k = 0.0000 0.3928-0.5389 ( 26234 PWs)   bands (ev):

   -19.5989 -19.5988 -19.5892 -19.5892 -18.5391 -18.5391 -18.5340 -18.5340
   -17.4806 -17.4806 -17.4671 -17.4671 -14.8772 -14.8772 -14.8626 -14.8626
   -14.8351 -14.8351 -14.8231 -14.8231 -13.4360 -13.4360 -13.3916 -13.3916
   -12.7216 -12.7216 -12.7159 -12.7159 -12.3228 -12.3228 -12.2520 -12.2520
   -11.9858 -11.9857 -11.9815 -11.9815 -11.8546 -11.8546 -11.8474 -11.8474
   -11.4566 -11.4566 -11.4001 -11.4001 -10.5085 -10.5085 -10.4823 -10.4823
    -9.6002  -9.6002  -9.5768  -9.5768  -8.9098  -8.9098  -8.8881  -8.8881
    -8.6692  -8.6692  -8.6189  -8.6189  -8.3469  -8.3469  -8.3132  -8.3132
    -7.8450  -7.8450  -7.7202  -7.7202  -7.0809  -7.0809  -6.9680  -6.9680
    -6.6393  -6.6393  -6.5604  -6.5604  -6.3423  -6.3423  -6.2910  -6.2910
    -6.1104  -6.1104  -6.0741  -6.0741  -5.6290  -5.6290  -5.6024  -5.6024
    -5.4985  -5.4985  -5.4755  -5.4755  -5.1619  -5.1619  -5.0828  -5.0828
    -4.9971  -4.9971  -4.9574  -4.9574  -4.7756  -4.7756  -4.7145  -4.7145
    -4.6175  -4.6175  -4.5998  -4.5998  -4.3661  -4.3661  -4.3035  -4.3035
    -4.1934  -4.1934  -4.0822  -4.0822  -4.0547  -4.0547  -4.0009  -4.0009
    -3.8982  -3.8982  -3.8613  -3.8613  -3.8059  -3.8059  -3.7607  -3.7607
    -3.4302  -3.4302  -3.4140  -3.4140  -3.3325  -3.3325  -3.2934  -3.2934
    -3.1608  -3.1608  -3.1082  -3.1082  -3.0613  -3.0613  -2.9918  -2.9918
    -2.9446  -2.9446  -2.9221  -2.9221  -2.8758  -2.8758  -2.8165  -2.8165
    -2.7462  -2.7462  -2.6856  -2.6856  -2.5958  -2.5958  -2.5637  -2.5637
    -2.5499  -2.5498  -2.4941  -2.4941  -2.0105  -2.0105  -1.9824  -1.9824
    -1.8436  -1.8436  -1.8336  -1.8336  -1.7038  -1.7038  -1.6463  -1.6463
    -1.5674  -1.5674  -1.3609  -1.3609  -0.4362  -0.4362  -0.3860  -0.3860
    -0.2851  -0.2851  -0.1171  -0.1171  -0.0805  -0.0805   0.0444   0.0444
     0.0813   0.0813   0.1229   0.1229   0.5164   0.5164   0.6030   0.6030
     1.2996   1.2996   1.4558   1.4558

          k =-0.5000 0.0000-0.2433 ( 26244 PWs)   bands (ev):

   -19.5998 -19.5973 -19.5900 -19.5892 -18.5377 -18.5370 -18.5364 -18.5352
   -17.4820 -17.4788 -17.4687 -17.4657 -14.8870 -14.8834 -14.8746 -14.8694
   -14.8256 -14.8248 -14.8232 -14.8058 -13.4337 -13.4183 -13.4072 -13.3928
   -12.7447 -12.7369 -12.7337 -12.6867 -12.3373 -12.3097 -12.2738 -12.2329
   -11.9762 -11.9658 -11.9563 -11.9453 -11.8852 -11.8730 -11.8562 -11.8435
   -11.4562 -11.4528 -11.4153 -11.3876 -10.5489 -10.5256 -10.4822 -10.4534
    -9.6189  -9.5965  -9.5520  -9.5442  -8.9709  -8.9521  -8.8602  -8.8377
    -8.7310  -8.6504  -8.6087  -8.5799  -8.4139  -8.3079  -8.3072  -8.3066
    -7.8629  -7.7737  -7.7392  -7.7388  -7.0580  -7.0495  -7.0368  -6.9397
    -6.6944  -6.6264  -6.6002  -6.4887  -6.3612  -6.3333  -6.3210  -6.2835
    -6.1490  -6.0915  -6.0778  -6.0317  -5.6943  -5.6042  -5.5847  -5.5837
    -5.5003  -5.4984  -5.4907  -5.4712  -5.1961  -5.1646  -5.0954  -5.0353
    -5.0106  -4.9933  -4.9722  -4.9049  -4.8866  -4.7566  -4.7504  -4.6276
    -4.6223  -4.5624  -4.5352  -4.5203  -4.3788  -4.3305  -4.3178  -4.3133
    -4.2739  -4.1960  -4.1484  -4.1071  -4.1053  -4.0556  -4.0210  -3.9776
    -3.8965  -3.8898  -3.8507  -3.8315  -3.8231  -3.7557  -3.7279  -3.7227
    -3.4672  -3.4390  -3.4322  -3.3977  -3.3702  -3.3430  -3.3344  -3.2704
    -3.1776  -3.1756  -3.1301  -3.1287  -3.0909  -3.0233  -3.0187  -2.9916
    -2.9552  -2.9231  -2.8942  -2.8773  -2.8379  -2.8336  -2.8018  -2.7724
    -2.7423  -2.7070  -2.6962  -2.6688  -2.6637  -2.5979  -2.5813  -2.5730
    -2.5589  -2.5542  -2.5372  -2.5272  -2.1660  -2.0050  -1.9832  -1.9303
    -1.9293  -1.8563  -1.8079  -1.7327  -1.7115  -1.6836  -1.6346  -1.6174
    -1.5397  -1.5141  -1.4357  -1.2695  -0.4030  -0.3904  -0.3768  -0.3455
    -0.3227  -0.2173  -0.1933  -0.1635  -0.1593  -0.0835   0.0224   0.0343
     0.0725   0.0829   0.0975   0.1378   0.4080   0.4504   0.6108   0.6963
     1.2881   1.3916   1.4668   1.5585

          k =-0.5000 0.0000-0.7823 ( 26276 PWs)   bands (ev):

   -19.5986 -19.5986 -19.5895 -19.5895 -18.5374 -18.5374 -18.5358 -18.5358
   -17.4804 -17.4804 -17.4672 -17.4672 -14.8836 -14.8836 -14.8731 -14.8731
   -14.8288 -14.8288 -14.8114 -14.8114 -13.4358 -13.4358 -13.3905 -13.3905
   -12.7408 -12.7408 -12.7103 -12.7103 -12.3271 -12.3271 -12.2487 -12.2487
   -11.9633 -11.9633 -11.9549 -11.9549 -11.8736 -11.8736 -11.8602 -11.8602
   -11.4557 -11.4557 -11.4010 -11.4010 -10.5217 -10.5217 -10.4842 -10.4842
    -9.5866  -9.5866  -9.5697  -9.5697  -8.9096  -8.9096  -8.8951  -8.8951
    -8.6924  -8.6924  -8.5924  -8.5924  -8.3694  -8.3694  -8.3016  -8.3016
    -7.8539  -7.8539  -7.7076  -7.7076  -7.0832  -7.0832  -6.9624  -6.9624
    -6.6658  -6.6658  -6.5384  -6.5384  -6.3373  -6.3373  -6.3011  -6.3011
    -6.1172  -6.1172  -6.0553  -6.0553  -5.6258  -5.6258  -5.5897  -5.5897
    -5.5054  -5.5054  -5.4745  -5.4745  -5.2131  -5.2131  -5.0771  -5.0771
    -5.0366  -5.0366  -4.9186  -4.9186  -4.8211  -4.8211  -4.6269  -4.6269
    -4.6109  -4.6109  -4.5736  -4.5736  -4.3403  -4.3403  -4.2426  -4.2426
    -4.1917  -4.1917  -4.1763  -4.1763  -4.0959  -4.0959  -4.0306  -4.0306
    -3.9310  -3.9310  -3.8425  -3.8425  -3.7927  -3.7927  -3.7145  -3.7145
    -3.4622  -3.4622  -3.4135  -3.4135  -3.3381  -3.3381  -3.3026  -3.3026
    -3.1543  -3.1543  -3.0847  -3.0847  -3.0454  -3.0454  -3.0391  -3.0391
    -2.9381  -2.9381  -2.8963  -2.8963  -2.8398  -2.8398  -2.8033  -2.8033
    -2.7317  -2.7317  -2.6836  -2.6836  -2.6469  -2.6469  -2.5806  -2.5806
    -2.5307  -2.5306  -2.5234  -2.5234  -2.0353  -2.0353  -1.9713  -1.9713
    -1.8657  -1.8657  -1.8367  -1.8367  -1.6954  -1.6954  -1.6264  -1.6264
    -1.5518  -1.5518  -1.3349  -1.3349  -0.4100  -0.4100  -0.3833  -0.3833
    -0.2510  -0.2510  -0.1724  -0.1724  -0.0705  -0.0705  -0.0031  -0.0031
     0.0889   0.0889   0.1134   0.1134   0.4262   0.4262   0.6503   0.6503
     1.3288   1.3289   1.5131   1.5131

          k =-0.5000 0.3928-0.2433 ( 26248 PWs)   bands (ev):

   -19.5992 -19.5980 -19.5897 -19.5893 -18.5376 -18.5373 -18.5359 -18.5354
   -17.4814 -17.4798 -17.4678 -17.4663 -14.8843 -14.8828 -14.8726 -14.8695
   -14.8282 -14.8281 -14.8182 -14.8102 -13.4302 -13.4225 -13.4034 -13.3962
   -12.7449 -12.7379 -12.7206 -12.6969 -12.3311 -12.3173 -12.2641 -12.2436
   -11.9769 -11.9734 -11.9484 -11.9447 -11.8818 -11.8757 -11.8532 -11.8467
   -11.4552 -11.4535 -11.4085 -11.3946 -10.5420 -10.5305 -10.4752 -10.4608
    -9.6139  -9.6027  -9.5503  -9.5464  -8.9658  -8.9565  -8.8545  -8.8434
    -8.7058  -8.6479  -8.6306  -8.5921  -8.3982  -8.3524  -8.3020  -8.2944
    -7.8408  -7.7995  -7.7288  -7.7260  -7.0629  -7.0559  -7.0074  -6.9622
    -6.6698  -6.6233  -6.5917  -6.5228  -6.3484  -6.3360  -6.3083  -6.2901
    -6.1330  -6.0951  -6.0811  -6.0523  -5.6724  -5.6283  -5.5960  -5.5932
    -5.5033  -5.4999  -5.4749  -5.4687  -5.1681  -5.1200  -5.1125  -5.0547
    -5.0263  -4.9973  -4.9813  -4.9276  -4.8323  -4.7346  -4.7149  -4.6911
    -4.6698  -4.6254  -4.5480  -4.5219  -4.3806  -4.3728  -4.3339  -4.2949
    -4.1935  -4.1557  -4.1371  -4.1148  -4.0461  -4.0431  -4.0172  -4.0021
    -3.9117  -3.8748  -3.8724  -3.8694  -3.8125  -3.7838  -3.7213  -3.7178
    -3.4422  -3.4316  -3.4143  -3.3842  -3.3697  -3.3520  -3.3282  -3.2817
    -3.1793  -3.1707  -3.1400  -3.0886  -3.0654  -3.0629  -3.0319  -3.0139
    -2.9546  -2.9421  -2.8968  -2.8597  -2.8308  -2.8270  -2.8178  -2.7979
    -2.7863  -2.7576  -2.6546  -2.6462  -2.6323  -2.5872  -2.5784  -2.5675
    -2.5616  -2.5510  -2.5398  -2.5232  -2.1223  -2.0302  -1.9752  -1.9636
    -1.8776  -1.8529  -1.8202  -1.7361  -1.6979  -1.6567  -1.6555  -1.6342
    -1.5396  -1.5347  -1.3869  -1.3097  -0.3864  -0.3770  -0.3753  -0.3480
    -0.3138  -0.2674  -0.1914  -0.1810  -0.1341  -0.0939   0.0204   0.0304
     0.0706   0.0781   0.1071   0.1290   0.4495   0.5025   0.5483   0.6227
     1.3337   1.3815   1.4965   1.5407

          k =-0.5000 0.3928-0.7823 ( 26274 PWs)   bands (ev):

   -19.5986 -19.5985 -19.5896 -19.5896 -18.5373 -18.5373 -18.5358 -18.5358
   -17.4805 -17.4805 -17.4672 -17.4672 -14.8820 -14.8820 -14.8722 -14.8722
   -14.8283 -14.8283 -14.8144 -14.8144 -13.4346 -13.4346 -13.3920 -13.3920
   -12.7331 -12.7331 -12.7171 -12.7171 -12.3246 -12.3246 -12.2526 -12.2526
   -11.9663 -11.9663 -11.9512 -11.9512 -11.8709 -11.8709 -11.8632 -11.8631
   -11.4547 -11.4547 -11.4021 -11.4021 -10.5181 -10.5181 -10.4869 -10.4869
    -9.5829  -9.5829  -9.5742  -9.5742  -8.9070  -8.9070  -8.8969  -8.8969
    -8.6715  -8.6715  -8.6191  -8.6191  -8.3706  -8.3706  -8.3026  -8.3026
    -7.8467  -7.8467  -7.7064  -7.7064  -7.0750  -7.0750  -6.9721  -6.9721
    -6.6400  -6.6400  -6.5628  -6.5628  -6.3271  -6.3271  -6.3067  -6.3067
    -6.1093  -6.1093  -6.0713  -6.0713  -5.6461  -5.6461  -5.5761  -5.5761
    -5.5024  -5.5024  -5.4806  -5.4806  -5.1699  -5.1699  -5.0935  -5.0935
    -5.0132  -5.0132  -4.9581  -4.9581  -4.7658  -4.7658  -4.6725  -4.6724
    -4.6077  -4.6077  -4.5873  -4.5873  -4.3733  -4.3733  -4.2886  -4.2886
    -4.1741  -4.1741  -4.1577  -4.1577  -4.0834  -4.0834  -4.0043  -4.0043
    -3.9422  -3.9422  -3.8642  -3.8642  -3.7768  -3.7768  -3.7122  -3.7122
    -3.4241  -3.4241  -3.3913  -3.3913  -3.3370  -3.3370  -3.3096  -3.3096
    -3.1525  -3.1525  -3.1083  -3.1083  -3.0552  -3.0552  -3.0332  -3.0332
    -2.9327  -2.9327  -2.9051  -2.9051  -2.8560  -2.8560  -2.8082  -2.8082
    -2.7280  -2.7280  -2.7105  -2.7105  -2.6342  -2.6342  -2.5846  -2.5846
    -2.5225  -2.5225  -2.4993  -2.4993  -2.0433  -2.0433  -1.9621  -1.9621
    -1.8473  -1.8473  -1.8209  -1.8209  -1.6893  -1.6893  -1.6540  -1.6540
    -1.5519  -1.5519  -1.3382  -1.3382  -0.3987  -0.3987  -0.3779  -0.3779
    -0.2980  -0.2980  -0.1350  -0.1350  -0.0895  -0.0895   0.0008   0.0008
     0.0878   0.0878   0.1101   0.1101   0.4706   0.4706   0.5851   0.5851
     1.3505   1.3505   1.5136   1.5136

!    total energy              =   -1189.46565700 Ry
     Harris-Foulkes estimate   =   -1189.46565701 Ry
     estimated scf accuracy    <       0.00000002 Ry

     The total energy is the sum of the following terms:

     one-electron contribution =    -862.48432887 Ry
     hartree contribution      =     569.83574389 Ry
     xc contribution           =    -358.97077257 Ry
     ewald contribution        =    -537.16247150 Ry
     Dispersion Correction     =      -0.68382795 Ry

     convergence has been achieved in  13 iterations

     Forces acting on atoms (Ry/au):

     atom    1 type  1   force =    -0.01168970    0.00315606    0.01217570
     atom    2 type  1   force =     0.01168970   -0.00315606   -0.01217570
     atom    3 type  1   force =     0.01168970    0.00315606   -0.01217570
     atom    4 type  1   force =    -0.01168970   -0.00315606    0.01217570
     atom    5 type  1   force =    -0.00079612    0.00129013    0.00134362
     atom    6 type  1   force =     0.00079612   -0.00129013   -0.00134362
     atom    7 type  1   force =     0.00079612    0.00129013   -0.00134362
     atom    8 type  1   force =    -0.00079612   -0.00129013    0.00134362
     atom    9 type  1   force =     0.00129828    0.00131282    0.00167780
     atom   10 type  1   force =    -0.00129828   -0.00131282   -0.00167780
     atom   11 type  1   force =    -0.00129828    0.00131282   -0.00167780
     atom   12 type  1   force =     0.00129828   -0.00131282    0.00167780
     atom   13 type  1   force =     0.00367435    0.00369654    0.00361446
     atom   14 type  1   force =    -0.00367435   -0.00369654   -0.00361446
     atom   15 type  1   force =    -0.00367435    0.00369654   -0.00361446
     atom   16 type  1   force =     0.00367435   -0.00369654    0.00361446
     atom   17 type  1   force =     0.00025911   -0.00494093   -0.00517087
     atom   18 type  1   force =    -0.00025911    0.00494093    0.00517087
     atom   19 type  1   force =    -0.00025911   -0.00494093    0.00517087
     atom   20 type  1   force =     0.00025911    0.00494093   -0.00517087
     atom   21 type  1   force =    -0.00341934    0.00313821    0.00767563
     atom   22 type  1   force =     0.00341934   -0.00313821   -0.00767563
     atom   23 type  1   force =     0.00341934    0.00313821   -0.00767563
     atom   24 type  1   force =    -0.00341934   -0.00313821    0.00767563
     atom   25 type  1   force =     0.01267258    0.03679599    0.04557587
     atom   26 type  1   force =    -0.01267258   -0.03679599   -0.04557587
     atom   27 type  1   force =    -0.01267258    0.03679599   -0.04557587
     atom   28 type  1   force =     0.01267258   -0.03679599    0.04557587
     atom   29 type  1   force =     0.00938612    0.00138438   -0.00109396
     atom   30 type  1   force =    -0.00938612   -0.00138438    0.00109396
     atom   31 type  1   force =    -0.00938612    0.00138438    0.00109396
     atom   32 type  1   force =     0.00938612   -0.00138438   -0.00109396
     atom   33 type  1   force =    -0.00798843    0.00138089    0.00761879
     atom   34 type  1   force =     0.00798843   -0.00138089   -0.00761879
     atom   35 type  1   force =     0.00798843    0.00138089   -0.00761879
     atom   36 type  1   force =    -0.00798843   -0.00138089    0.00761879
     atom   37 type  1   force =     0.00332033   -0.00224994   -0.00255458
     atom   38 type  1   force =    -0.00332033    0.00224994    0.00255458
     atom   39 type  1   force =    -0.00332033   -0.00224994    0.00255458
     atom   40 type  1   force =     0.00332033    0.00224994   -0.00255458
     atom   41 type  1   force =     0.00537068   -0.00457180   -0.00563237
     atom   42 type  1   force =    -0.00537068    0.00457180    0.00563237
     atom   43 type  1   force =    -0.00537068   -0.00457180    0.00563237
     atom   44 type  1   force =     0.00537068    0.00457180   -0.00563237
     atom   45 type  1   force =    -0.00898388   -0.00219653    0.00100671
     atom   46 type  1   force =     0.00898388    0.00219653   -0.00100671
     atom   47 type  1   force =     0.00898388   -0.00219653   -0.00100671
     atom   48 type  1   force =    -0.00898388    0.00219653    0.00100671
     atom   49 type  1   force =     0.01480900   -0.00163327   -0.01013063
     atom   50 type  1   force =    -0.01480900    0.00163327    0.01013063
     atom   51 type  1   force =    -0.01480900   -0.00163327    0.01013063
     atom   52 type  1   force =     0.01480900    0.00163327   -0.01013063
     atom   53 type  1   force =    -0.00369707    0.00382430    0.00549655
     atom   54 type  1   force =     0.00369707   -0.00382430   -0.00549655
     atom   55 type  1   force =     0.00369707    0.00382430   -0.00549655
     atom   56 type  1   force =    -0.00369707   -0.00382430    0.00549655
     atom   57 type  1   force =     0.00800171    0.00369719   -0.00077527
     atom   58 type  1   force =    -0.00800171   -0.00369719    0.00077527
     atom   59 type  1   force =    -0.00800171    0.00369719    0.00077527
     atom   60 type  1   force =     0.00800171   -0.00369719   -0.00077527
     atom   61 type  1   force =     0.00256904   -0.00581471   -0.00734164
     atom   62 type  1   force =    -0.00256904    0.00581471    0.00734164
     atom   63 type  1   force =    -0.00256904   -0.00581471    0.00734164
     atom   64 type  1   force =     0.00256904    0.00581471   -0.00734164
     atom   65 type  1   force =     0.00670309    0.00540792   -0.00019161
     atom   66 type  1   force =    -0.00670309   -0.00540792    0.00019161
     atom   67 type  1   force =    -0.00670309    0.00540792    0.00019161
     atom   68 type  1   force =     0.00670309   -0.00540792   -0.00019161
     atom   69 type  2   force =     0.02690803   -0.00506648   -0.02308257
     atom   70 type  2   force =    -0.02690803    0.00506648    0.02308257
     atom   71 type  2   force =    -0.02690803   -0.00506648    0.02308257
     atom   72 type  2   force =     0.02690803    0.00506648   -0.02308257
     atom   73 type  2   force =     0.03080540    0.01553405    0.00575249
     atom   74 type  2   force =    -0.03080540   -0.01553405   -0.00575249
     atom   75 type  2   force =    -0.03080540    0.01553405   -0.00575249
     atom   76 type  2   force =     0.03080540   -0.01553405    0.00575249
     atom   77 type  2   force =     0.00355789    0.02051212    0.02867894
     atom   78 type  2   force =    -0.00355789   -0.02051212   -0.02867894
     atom   79 type  2   force =    -0.00355789    0.02051212   -0.02867894
     atom   80 type  2   force =     0.00355789   -0.02051212    0.02867894
     atom   81 type  2   force =    -0.02651218    0.00388637    0.02282345
     atom   82 type  2   force =     0.02651218   -0.00388637   -0.02282345
     atom   83 type  2   force =     0.02651218    0.00388637   -0.02282345
     atom   84 type  2   force =    -0.02651218   -0.00388637    0.02282345
     atom   85 type  2   force =     0.00173879    0.02252605    0.02729736
     atom   86 type  2   force =    -0.00173879   -0.02252605   -0.02729736
     atom   87 type  2   force =    -0.00173879    0.02252605   -0.02729736
     atom   88 type  2   force =     0.00173879   -0.02252605    0.02729736
     atom   89 type  2   force =    -0.00079455   -0.02247976   -0.02533474
     atom   90 type  2   force =     0.00079455    0.02247976    0.02533474
     atom   91 type  2   force =     0.00079455   -0.02247976    0.02533474
     atom   92 type  2   force =    -0.00079455    0.02247976   -0.02533474
     atom   93 type  2   force =     0.02733994    0.02072880    0.00914149
     atom   94 type  2   force =    -0.02733994   -0.02072880   -0.00914149
     atom   95 type  2   force =    -0.02733994    0.02072880   -0.00914149
     atom   96 type  2   force =     0.02733994   -0.02072880    0.00914149
     atom   97 type  2   force =    -0.00234683    0.02486989    0.02585253
     atom   98 type  2   force =     0.00234683   -0.02486989   -0.02585253
     atom   99 type  2   force =     0.00234683    0.02486989   -0.02585253
     atom  100 type  2   force =    -0.00234683   -0.02486989    0.02585253
     atom  101 type  2   force =    -0.02762750   -0.02078180   -0.01036722
     atom  102 type  2   force =     0.02762750    0.02078180    0.01036722
     atom  103 type  2   force =     0.02762750   -0.02078180    0.01036722
     atom  104 type  2   force =    -0.02762750    0.02078180   -0.01036722
     atom  105 type  2   force =     0.00379885   -0.02396758   -0.02645174
     atom  106 type  2   force =    -0.00379885    0.02396758    0.02645174
     atom  107 type  2   force =    -0.00379885   -0.02396758    0.02645174
     atom  108 type  2   force =     0.00379885    0.02396758   -0.02645174
     atom  109 type  2   force =     0.00515911    0.02959275   -0.00930980
     atom  110 type  2   force =    -0.00515911   -0.02959275    0.00930980
     atom  111 type  2   force =    -0.00515911    0.02959275    0.00930980
     atom  112 type  2   force =     0.00515911   -0.02959275   -0.00930980
     atom  113 type  2   force =    -0.03086930   -0.00018098    0.01363803
     atom  114 type  2   force =     0.03086930    0.00018098   -0.01363803
     atom  115 type  2   force =     0.03086930   -0.00018098   -0.01363803
     atom  116 type  2   force =    -0.03086930    0.00018098    0.01363803
     atom  117 type  2   force =     0.02054068   -0.00386009    0.02408119
     atom  118 type  2   force =    -0.02054068    0.00386009   -0.02408119
     atom  119 type  2   force =    -0.02054068   -0.00386009   -0.02408119
     atom  120 type  2   force =     0.02054068    0.00386009    0.02408119
     atom  121 type  2   force =     0.00743213   -0.03092543    0.00288372
     atom  122 type  2   force =    -0.00743213    0.03092543   -0.00288372
     atom  123 type  2   force =    -0.00743213   -0.03092543   -0.00288372
     atom  124 type  2   force =     0.00743213    0.03092543    0.00288372
     atom  125 type  2   force =    -0.02560762    0.00540046    0.02090857
     atom  126 type  2   force =     0.02560762   -0.00540046   -0.02090857
     atom  127 type  2   force =     0.02560762    0.00540046   -0.02090857
     atom  128 type  2   force =    -0.02560762   -0.00540046    0.02090857
     atom  129 type  2   force =    -0.01214611    0.00186728   -0.02967568
     atom  130 type  2   force =     0.01214611   -0.00186728    0.02967568
     atom  131 type  2   force =     0.01214611    0.00186728    0.02967568
     atom  132 type  2   force =    -0.01214611   -0.00186728   -0.02967568
     atom  133 type  2   force =    -0.05104601   -0.01879500    0.00348962
     atom  134 type  2   force =     0.05104601    0.01879500   -0.00348962
     atom  135 type  2   force =     0.05104601   -0.01879500   -0.00348962
     atom  136 type  2   force =    -0.05104601    0.01879500    0.00348962
     atom  137 type  4   force =    -0.02416038    0.00447976    0.01252733
     atom  138 type  4   force =     0.02416038   -0.00447976   -0.01252733
     atom  139 type  4   force =     0.02416038    0.00447976   -0.01252733
     atom  140 type  4   force =    -0.02416038   -0.00447976    0.01252733
     atom  141 type  3   force =     0.08802654   -0.00613622   -0.06450470
     atom  142 type  3   force =    -0.08802654    0.00613622    0.06450470
     atom  143 type  3   force =    -0.08802654   -0.00613622    0.06450470
     atom  144 type  3   force =     0.08802654    0.00613622   -0.06450470
     atom  145 type  3   force =    -0.04829628   -0.06580896   -0.06794399
     atom  146 type  3   force =     0.04829628    0.06580896    0.06794399
     atom  147 type  3   force =     0.04829628   -0.06580896    0.06794399
     atom  148 type  3   force =    -0.04829628    0.06580896   -0.06794399

     Total force =     0.451353     Total SCF correction =     0.000272

     BFGS Geometry Optimization

     number of scf cycles    =   1
     number of bfgs steps    =   0

     energy   new            =   -1189.4656569988 Ry

     new trust radius        =       0.1093031613 bohr
     new conv_thr            =       0.0000001000 Ry


ATOMIC_POSITIONS (angstrom)
C        4.826981081   3.468046130   4.562309551
C        1.820997919   6.816952870   6.681889449
C        4.557007919   8.610547130   1.059790449
C        2.090971081   1.674453870  10.184409551
C        3.590332581   2.826778800   4.281646210
C        3.057647419   7.458221200   6.962552790
C        5.793657419   7.969278800   1.340452790
C        0.854322581   2.315721200   9.903746210
C        3.432081608   2.018614449   3.140680893
C        3.215897392   8.266385551   8.103518107
C        5.951908392   7.161114449   2.481418107
C        0.696071608   3.123885551   8.762780893
C        4.515233427   1.836451380   2.239365762
C        2.132746573   8.448548620   9.004834238
C        4.868756573   6.978951380   3.382734238
C        1.779222427   3.306048620   7.861464762
C        5.737019413   2.476573974   2.486494280
C        0.910960587   7.808426026   8.757705720
C        3.646970587   7.619073974   3.135605720
C        3.001008413   2.665926026   8.108594280
C        5.943476476   3.310298572   3.641973899
C        0.704503524   6.974701428   7.602225101
C        3.440513524   8.452798572   1.980126101
C        3.207465476   1.832201428   9.264073899
C        7.255631024   4.018228716   3.918888357
C       -0.607651024   6.266771284   7.325311643
C        2.128358976   9.160728716   1.703211643
C        4.519621024   1.124271284   9.540988357
C        8.383057501   3.808042149   2.992925380
C       -1.735078501   6.476957851   8.251274620
C        1.000931499   8.950542149   2.629174620
C        5.647047501   1.334457851   8.615024380
C        9.582431381   4.473740080   3.184663654
C       -2.934452381   5.811259920   8.059536346
C       -0.198442381   9.616239080   2.437436346
C        6.846421381   0.668759920   8.806763654
C       10.808550978   4.306895547   2.422733655
C       -4.160570978   5.978104453   8.821466345
C       -1.424560978   9.449394547   3.199366345
C        8.072540978   0.835604453   8.044832655
C       10.978592516   3.342191640   1.368851210
C       -4.330612516   6.942808360   9.875348790
C       -1.594602516   8.484691640   4.253248790
C        8.242582516   1.800308360   6.990951210
C        0.067703620   3.188037860   0.703586504
C        6.580276380   7.096962140  10.540612496
C        9.316286380   8.330537860   4.918512496
C       -2.668306380   1.954462140   6.325686504
C        1.214030560   4.020993381   1.027420188
C        5.433949440   6.264006619  10.216778812
C        8.169959440   9.163493381   4.594679812
C       -1.521979440   1.121506619   6.649520188
C        1.055644166   4.978741829   2.104860417
C        5.592334834   5.306258171   9.139339583
C        8.328345834  10.121241829   3.517239583
C       -1.680365834   0.163758171   7.726959417
C       -0.164119961   5.105592913   2.764107670
C        6.812099961   5.179407087   8.480091330
C        9.548109961  10.248092913   2.857991330
C       -2.900130961   0.036907087   8.386207670
C       -2.954506862   2.907115424  10.491870027
C        9.602486862   7.377885576   0.752328973
C        6.866476862   8.049614424   6.374428973
C       -0.218496862   2.235384576   4.869770027
C        3.523790317   4.821787193   0.626825607
C        3.124189683   5.463212807  10.617374393
C        5.860199683   9.964287193   4.995274393
C        0.787779317   0.320712807   6.248924607
H        2.765872753   2.994216924   4.989531858
H        3.882106247   7.290782076   6.254668142
H        6.618117247   8.136716924   0.632568142
H        0.029862753   2.148282076  10.611630858
H        2.463566514   1.530540738   2.940124262
H        4.184412486   8.754459262   8.304074738
H        6.920422486   6.673040738   2.681975738
H       -0.272443486   3.611959262   8.562224262
H        4.401713939   1.195360873   1.350169847
H        2.246265061   9.089639127   9.894029153
H        4.982276061   6.337860873   4.271930153
H        1.665703939   3.947139127   6.972269847
H        6.552342798   2.325929490   1.769908967
H        0.095636202   7.959069510   9.474291033
H        2.831646202   7.468429490   3.852191033
H        3.816332798   2.816569510   7.392008967
H        8.281393784   3.096422640   2.162128713
H       -1.633414784   7.188577360   9.082071287
H        1.102595216   8.238922640   3.459971287
H        5.545383784   2.046077360   7.784227713
H        9.629769581   5.194065517   4.017761196
H       -2.981789581   5.090934483   7.226437804
H       -0.245779581  10.336565517   1.604337804
H        6.893758581  -0.051565517   9.639861196
H       10.134456563   2.696976767   1.079227448
H       -3.486477563   7.588023233  10.164972552
H       -0.750467563   7.839476767   4.542872552
H        7.398446563   2.445523233   6.701326448
H        0.149960340   2.434877737  -0.090808515
H        6.498019660   7.850122263  11.335007515
H        9.234029660   7.577376737   5.712908515
H       -2.586049660   2.707622263   5.531291485
H        1.904739858   5.606180610   2.405699342
H        4.743239142   4.678819390   8.838500658
H        7.479250142   0.463680610   3.216400658
H       -0.831270142   9.821319390   8.027798342
H       -0.272228158   5.833345539   3.582641001
H        6.920208158   4.451654461   7.661558999
H        9.656218158   0.690845539   2.039458999
H       -3.008238158   9.594154461   9.204741001
H       -3.139040313   1.882090191  10.876051527
H        9.787020313   8.402909809   0.368147473
H        7.051010313   7.024590191   5.990247473
H       -0.403030313   3.260409809   5.253951527
H       -1.937976606   2.956006133  10.069771752
H        8.585955606   7.328993867   1.174428248
H        5.849945606   8.098506133   6.796528248
H        0.798034394   2.186493867   4.447671752
H       -3.683255018   3.113096856   9.679830612
H       10.331235018   7.171902144   1.564368388
H        7.595225018   8.255596856   7.186468388
H       -0.947245018   2.029402144   4.057730612
H        3.209881535   5.881127823   0.509273596
H        3.438098465   4.403872177  10.734925404
H        6.174108465   0.738627823   5.112826404
H        0.473871535   9.546372177   6.131373596
H        4.345044939   4.611030324  -0.079344905
H        2.302934061   5.673969676  11.323544905
H        5.038944061   9.753530324   5.701444905
H        1.609034939   0.531469676   5.542755095
H        3.899620589   4.684322961   1.663736910
H        2.748359411   5.600676039   9.580463090
H        5.484369411   9.826823961   3.958363090
H        1.163610589   0.458177039   7.285835910
H        5.912511785   4.601171351   5.642998698
H        0.735468215   5.683828649   5.601201302
H       -2.000541785   9.743671351  11.223300302
H        8.648521785   0.541328649   0.020898698
N        2.387222088   3.907270994   0.341227198
N        4.260757912   6.377729006  10.902971802
N        6.996767912   9.049770994   5.280872802
N       -0.348787912   1.235229006   5.963327198
O        4.950659950   4.222243130   5.686718323
O        1.697320050   6.062756870   5.557480677
O       -1.038690950   9.364743130  11.179580677
O        7.686669950   0.920256870   0.064618323
O        7.363137115   4.754635271   4.930444960
O       -0.715158115   5.530364729   6.313754040
O        2.020851885   9.897135271   0.691654040
O        4.627127115   0.387864729  10.552544960



     Writing output data file HCpot.save
     charge density from previous step

     total cpu time spent up to now is     2793.1 secs

     Self-consistent Calculation

     iteration #  1     ecut=    30.00 Ry     beta=0.70
     Davidson diagonalization with overlap
     ethr =  1.00E-06,  avg # of iterations = 11.0

     total cpu time spent up to now is     3230.5 secs

     total energy              =   -1188.45983723 Ry
     Harris-Foulkes estimate   =   -1191.05361805 Ry
     estimated scf accuracy    <       3.47117224 Ry

     iteration #  2     ecut=    30.00 Ry     beta=0.70
     Davidson diagonalization with overlap
     ethr =  8.51E-04,  avg # of iterations =  4.0

     total cpu time spent up to now is     3436.1 secs

     total energy              =   -1188.94657759 Ry
     Harris-Foulkes estimate   =   -1190.11377396 Ry
     estimated scf accuracy    <       1.98563187 Ry

     iteration #  3     ecut=    30.00 Ry     beta=0.70
     Davidson diagonalization with overlap
     ethr =  4.87E-04,  avg # of iterations =  4.0

     total cpu time spent up to now is     3635.4 secs

     total energy              =   -1189.42129072 Ry
     Harris-Foulkes estimate   =   -1189.71229836 Ry
     estimated scf accuracy    <       0.66892114 Ry

     iteration #  4     ecut=    30.00 Ry     beta=0.70
     Davidson diagonalization with overlap
     ethr =  1.64E-04,  avg # of iterations =  5.0

     total cpu time spent up to now is     3822.1 secs

     total energy              =   -1189.55879580 Ry
     Harris-Foulkes estimate   =   -1189.58853259 Ry
     estimated scf accuracy    <       0.06939702 Ry

     iteration #  5     ecut=    30.00 Ry     beta=0.70
     Davidson diagonalization with overlap
     ethr =  1.70E-05,  avg # of iterations =  5.0

     total cpu time spent up to now is     4014.3 secs

     total energy              =   -1189.57243402 Ry
     Harris-Foulkes estimate   =   -1189.57556565 Ry
     estimated scf accuracy    <       0.00676779 Ry

     iteration #  6     ecut=    30.00 Ry     beta=0.70
     Davidson diagonalization with overlap
     ethr =  1.66E-06,  avg # of iterations =  4.0

     total cpu time spent up to now is     4205.8 secs

     total energy              =   -1189.57394493 Ry
     Harris-Foulkes estimate   =   -1189.57439882 Ry
     estimated scf accuracy    <       0.00107384 Ry

     iteration #  7     ecut=    30.00 Ry     beta=0.70
     Davidson diagonalization with overlap
     ethr =  2.63E-07,  avg # of iterations =  4.0

     total cpu time spent up to now is     4401.3 secs

     total energy              =   -1189.57416669 Ry
     Harris-Foulkes estimate   =   -1189.57423330 Ry
     estimated scf accuracy    <       0.00014832 Ry

     iteration #  8     ecut=    30.00 Ry     beta=0.70
     Davidson diagonalization with overlap
     ethr =  3.64E-08,  avg # of iterations =  4.0

     total cpu time spent up to now is     4601.3 secs

     total energy              =   -1189.57420015 Ry
     Harris-Foulkes estimate   =   -1189.57421499 Ry
     estimated scf accuracy    <       0.00003324 Ry

     iteration #  9     ecut=    30.00 Ry     beta=0.70
     Davidson diagonalization with overlap
     ethr =  8.15E-09,  avg # of iterations =  4.0

     total cpu time spent up to now is     4790.2 secs

     total energy              =   -1189.57420686 Ry
     Harris-Foulkes estimate   =   -1189.57420842 Ry
     estimated scf accuracy    <       0.00000321 Ry

     iteration # 10     ecut=    30.00 Ry     beta=0.70
     Davidson diagonalization with overlap
     ethr =  7.86E-10,  avg # of iterations =  4.0

     total cpu time spent up to now is     4986.4 secs

     total energy              =   -1189.57420766 Ry
     Harris-Foulkes estimate   =   -1189.57420784 Ry
     estimated scf accuracy    <       0.00000038 Ry

     iteration # 11     ecut=    30.00 Ry     beta=0.70
     Davidson diagonalization with overlap
     ethr =  9.42E-11,  avg # of iterations =  3.9

     total cpu time spent up to now is     5177.2 secs

     End of self-consistent calculation

          k = 0.0000 0.0000 0.0000 ( 26273 PWs)   bands (ev):

   -20.3371 -20.3355 -20.3304 -20.3298 -19.5238 -19.5230 -19.5195 -19.5190
   -17.5155 -17.5120 -17.5020 -17.4995 -14.8496 -14.8451 -14.8362 -14.8229
   -14.7677 -14.7628 -14.7460 -14.7370 -13.3839 -13.3418 -13.3394 -13.3274
   -12.6357 -12.6349 -12.6256 -12.6050 -12.3505 -12.3225 -12.2842 -12.2474
   -12.0893 -12.0893 -12.0283 -12.0240 -11.8504 -11.8444 -11.8388 -11.8347
   -11.5131 -11.5059 -11.4691 -11.4364 -10.5233 -10.5145 -10.5142 -10.5022
    -9.6598  -9.6483  -9.6287  -9.6210  -8.9701  -8.9510  -8.9205  -8.8883
    -8.7066  -8.6668  -8.6114  -8.5692  -8.5502  -8.5018  -8.4948  -8.4839
    -7.9377  -7.8489  -7.8236  -7.7775  -7.1268  -7.1102  -7.0956  -7.0276
    -6.7493  -6.6656  -6.6417  -6.5405  -6.4996  -6.4947  -6.4681  -6.4366
    -6.3767  -6.3709  -6.3633  -6.2732  -5.7080  -5.6776  -5.6216  -5.6060
    -5.5803  -5.5494  -5.4869  -5.4679  -5.2621  -5.2422  -5.2060  -5.1695
    -5.0889  -5.0450  -5.0424  -5.0282  -4.8758  -4.8107  -4.7867  -4.7277
    -4.6564  -4.6097  -4.6074  -4.6033  -4.5324  -4.4946  -4.4610  -4.4495
    -4.3698  -4.3203  -4.2331  -4.2232  -4.2056  -4.1725  -4.1443  -4.1412
    -4.0051  -3.9225  -3.9189  -3.8938  -3.8752  -3.8751  -3.8495  -3.8081
    -3.5901  -3.5746  -3.5473  -3.5190  -3.5092  -3.4281  -3.4224  -3.3928
    -3.3575  -3.3389  -3.2535  -3.2520  -3.2060  -3.1872  -3.0582  -3.0581
    -3.0414  -3.0331  -3.0115  -2.9613  -2.9268  -2.9230  -2.9206  -2.8618
    -2.8308  -2.8004  -2.7968  -2.7676  -2.7414  -2.7363  -2.7227  -2.6795
    -2.6110  -2.5645  -2.5580  -2.5332  -2.1370  -2.0965  -2.0527  -2.0178
    -1.9613  -1.8973  -1.8597  -1.8396  -1.7394  -1.6762  -1.6125  -1.5987
    -1.5912  -1.5290  -1.4825  -1.3288  -0.4959  -0.4514  -0.4290  -0.3210
    -0.2935  -0.2122  -0.1902  -0.1382  -0.1176  -0.0713   0.0230   0.0558
     0.0760   0.1225   0.1267   0.1324   0.4430   0.4695   0.6079   0.6815
     1.3727   1.3936   1.5582   1.5828

          k = 0.0000 0.0000-0.5389 ( 26180 PWs)   bands (ev):

   -20.3363 -20.3363 -20.3301 -20.3301 -19.5234 -19.5234 -19.5192 -19.5192
   -17.5138 -17.5137 -17.5007 -17.5007 -14.8465 -14.8465 -14.8296 -14.8295
   -14.7662 -14.7662 -14.7413 -14.7413 -13.3735 -13.3735 -13.3231 -13.3231
   -12.6312 -12.6312 -12.6190 -12.6190 -12.3395 -12.3395 -12.2612 -12.2612
   -12.0602 -12.0602 -12.0572 -12.0572 -11.8443 -11.8443 -11.8402 -11.8402
   -11.5108 -11.5108 -11.4520 -11.4520 -10.5258 -10.5258 -10.5013 -10.5013
    -9.6532  -9.6532  -9.6178  -9.6178  -8.9515  -8.9515  -8.9219  -8.9219
    -8.6892  -8.6891  -8.5846  -8.5846  -8.5317  -8.5317  -8.4864  -8.4864
    -7.9051  -7.9051  -7.7872  -7.7872  -7.1460  -7.1460  -7.0399  -7.0399
    -6.7119  -6.7119  -6.5889  -6.5889  -6.4840  -6.4840  -6.4523  -6.4523
    -6.3872  -6.3872  -6.3235  -6.3235  -5.6676  -5.6676  -5.6209  -5.6209
    -5.5251  -5.5250  -5.5035  -5.5035  -5.2772  -5.2772  -5.1530  -5.1530
    -5.0887  -5.0887  -5.0144  -5.0144  -4.8527  -4.8527  -4.7024  -4.7024
    -4.6760  -4.6760  -4.6142  -4.6142  -4.5620  -4.5620  -4.4654  -4.4654
    -4.3167  -4.3167  -4.2448  -4.2448  -4.1802  -4.1802  -4.1209  -4.1209
    -4.0152  -4.0152  -3.8701  -3.8701  -3.8634  -3.8634  -3.8287  -3.8287
    -3.5937  -3.5937  -3.5441  -3.5441  -3.4385  -3.4385  -3.3942  -3.3941
    -3.3703  -3.3703  -3.3016  -3.3016  -3.1414  -3.1414  -3.0927  -3.0926
    -3.0074  -3.0074  -2.9890  -2.9890  -2.9452  -2.9452  -2.8943  -2.8943
    -2.8172  -2.8172  -2.8086  -2.8086  -2.7132  -2.7132  -2.6741  -2.6741
    -2.5891  -2.5891  -2.5371  -2.5371  -2.0735  -2.0735  -2.0295  -2.0295
    -1.9431  -1.9431  -1.8795  -1.8795  -1.7133  -1.7133  -1.6141  -1.6140
    -1.5759  -1.5759  -1.3928  -1.3928  -0.4716  -0.4716  -0.3985  -0.3985
    -0.2610  -0.2610  -0.1378  -0.1378  -0.0631  -0.0631   0.0216   0.0216
     0.0939   0.0939   0.1393   0.1393   0.4551   0.4552   0.6405   0.6405
     1.3848   1.3848   1.5574   1.5574

          k = 0.0000 0.3928 0.0000 ( 26230 PWs)   bands (ev):

   -20.3367 -20.3359 -20.3302 -20.3299 -19.5236 -19.5232 -19.5193 -19.5191
   -17.5147 -17.5130 -17.5012 -17.5000 -14.8459 -14.8396 -14.8393 -14.8284
   -14.7629 -14.7561 -14.7520 -14.7433 -13.3751 -13.3551 -13.3350 -13.3280
   -12.6353 -12.6348 -12.6196 -12.6093 -12.3433 -12.3295 -12.2761 -12.2576
   -12.0901 -12.0901 -12.0256 -12.0234 -11.8499 -11.8471 -11.8371 -11.8353
   -11.5111 -11.5076 -11.4610 -11.4446 -10.5218 -10.5173 -10.5108 -10.5049
    -9.6526  -9.6397  -9.6374  -9.6257  -8.9662  -8.9567  -8.9145  -8.8985
    -8.6851  -8.6454  -8.6381  -8.5972  -8.5401  -8.5199  -8.4825  -8.4817
    -7.9162  -7.8776  -7.7992  -7.7812  -7.1328  -7.1225  -7.0784  -7.0462
    -6.7256  -6.6700  -6.6314  -6.5705  -6.4762  -6.4758  -6.4559  -6.4470
    -6.3863  -6.3862  -6.3393  -6.2938  -5.6960  -5.6845  -5.6079  -5.6025
    -5.5739  -5.5614  -5.4837  -5.4724  -5.2514  -5.2260  -5.2223  -5.1753
    -5.1268  -5.0837  -5.0350  -5.0308  -4.8290  -4.7878  -4.7869  -4.7346
    -4.7218  -4.6742  -4.5780  -4.5591  -4.5342  -4.4820  -4.4434  -4.3936
    -4.3605  -4.2916  -4.2878  -4.2487  -4.2039  -4.1941  -4.1595  -4.1224
    -3.9871  -3.9530  -3.9295  -3.9107  -3.9059  -3.8950  -3.8182  -3.7949
    -3.5462  -3.5376  -3.5298  -3.5195  -3.4909  -3.4528  -3.3890  -3.3828
    -3.3556  -3.3464  -3.3168  -3.3020  -3.1883  -3.1638  -3.0778  -3.0740
    -3.0332  -3.0193  -3.0106  -2.9728  -2.9449  -2.9385  -2.8878  -2.8591
    -2.8265  -2.8221  -2.7984  -2.7938  -2.7303  -2.7251  -2.6974  -2.6940
    -2.5794  -2.5610  -2.5436  -2.5337  -2.1333  -2.1135  -2.0116  -2.0066
    -1.9717  -1.9313  -1.8439  -1.8190  -1.7114  -1.6534  -1.6391  -1.6171
    -1.5946  -1.5807  -1.4289  -1.3600  -0.4736  -0.4394  -0.4266  -0.3536
    -0.2989  -0.2460  -0.1692  -0.1323  -0.1010  -0.0776   0.0398   0.0439
     0.0665   0.0956   0.1323   0.1327   0.4798   0.5218   0.5621   0.6271
     1.3823   1.3924   1.5626   1.5760

          k = 0.0000 0.3928-0.5389 ( 26234 PWs)   bands (ev):

   -20.3363 -20.3363 -20.3301 -20.3301 -19.5234 -19.5234 -19.5192 -19.5192
   -17.5138 -17.5138 -17.5008 -17.5007 -14.8429 -14.8429 -14.8329 -14.8329
   -14.7605 -14.7605 -14.7474 -14.7474 -13.3701 -13.3701 -13.3270 -13.3270
   -12.6278 -12.6278 -12.6212 -12.6212 -12.3369 -12.3369 -12.2656 -12.2656
   -12.0592 -12.0592 -12.0568 -12.0568 -11.8448 -11.8448 -11.8403 -11.8403
   -11.5093 -11.5093 -11.4534 -11.4534 -10.5250 -10.5250 -10.5024 -10.5024
    -9.6438  -9.6438  -9.6261  -9.6261  -8.9490  -8.9490  -8.9267  -8.9267
    -8.6679  -8.6679  -8.6172  -8.6172  -8.5189  -8.5188  -8.4916  -8.4916
    -7.9010  -7.9010  -7.7855  -7.7855  -7.1506  -7.1506  -7.0420  -7.0420
    -6.6853  -6.6853  -6.6157  -6.6157  -6.4704  -6.4704  -6.4420  -6.4420
    -6.3807  -6.3807  -6.3404  -6.3404  -5.6614  -5.6614  -5.6272  -5.6272
    -5.5252  -5.5252  -5.5033  -5.5033  -5.2597  -5.2597  -5.1854  -5.1854
    -5.0885  -5.0885  -5.0238  -5.0237  -4.8331  -4.8331  -4.7712  -4.7712
    -4.6689  -4.6689  -4.6486  -4.6486  -4.5100  -4.5100  -4.4175  -4.4175
    -4.2899  -4.2899  -4.2377  -4.2377  -4.1890  -4.1890  -4.1396  -4.1396
    -3.9904  -3.9904  -3.9256  -3.9256  -3.8629  -3.8629  -3.8505  -3.8505
    -3.5526  -3.5525  -3.5317  -3.5317  -3.4358  -3.4358  -3.4038  -3.4038
    -3.3496  -3.3496  -3.3074  -3.3074  -3.1392  -3.1392  -3.1025  -3.1025
    -3.0342  -3.0342  -2.9977  -2.9977  -2.9524  -2.9524  -2.8889  -2.8889
    -2.8246  -2.8246  -2.7937  -2.7937  -2.7150  -2.7150  -2.6807  -2.6807
    -2.5757  -2.5757  -2.5343  -2.5343  -2.0578  -2.0578  -2.0213  -2.0213
    -1.9375  -1.9375  -1.8937  -1.8937  -1.6904  -1.6904  -1.6343  -1.6343
    -1.5770  -1.5770  -1.3934  -1.3934  -0.4657  -0.4657  -0.4050  -0.4050
    -0.2683  -0.2683  -0.1225  -0.1224  -0.0912  -0.0912   0.0437   0.0437
     0.0874   0.0874   0.1304   0.1304   0.4978   0.4978   0.5933   0.5933
     1.3861   1.3861   1.5578   1.5578

          k =-0.5000 0.0000-0.2433 ( 26244 PWs)   bands (ev):

   -20.3366 -20.3350 -20.3308 -20.3303 -19.5221 -19.5213 -19.5212 -19.5207
   -17.5152 -17.5121 -17.5022 -17.4994 -14.8531 -14.8405 -14.8390 -14.8354
   -14.7653 -14.7559 -14.7453 -14.7309 -13.3704 -13.3537 -13.3398 -13.3257
   -12.6579 -12.6458 -12.6372 -12.5929 -12.3492 -12.3241 -12.2883 -12.2471
   -12.0597 -12.0564 -12.0285 -12.0087 -11.8790 -11.8773 -11.8292 -11.8206
   -11.5085 -11.5058 -11.4691 -11.4401 -10.5667 -10.5451 -10.4957 -10.4701
    -9.6697  -9.6532  -9.5918  -9.5913  -8.9972  -8.9936  -8.9138  -8.8738
    -8.7202  -8.6493  -8.6410  -8.5821  -8.5382  -8.4951  -8.4919  -8.4685
    -7.9029  -7.8494  -7.8069  -7.8069  -7.1260  -7.1244  -7.1081  -7.0176
    -6.7440  -6.6692  -6.6629  -6.5680  -6.4882  -6.4527  -6.4488  -6.4480
    -6.4259  -6.3539  -6.3530  -6.2588  -5.7281  -5.6262  -5.6219  -5.6060
    -5.5306  -5.5296  -5.5159  -5.4989  -5.2951  -5.2737  -5.1521  -5.1369
    -5.1136  -5.0916  -5.0445  -4.9716  -4.9593  -4.8274  -4.7782  -4.6874
    -4.6853  -4.6179  -4.6021  -4.5591  -4.5122  -4.5118  -4.4432  -4.4162
    -4.3661  -4.3582  -4.2978  -4.2100  -4.1795  -4.1771  -4.1290  -4.1274
    -3.9815  -3.9507  -3.9494  -3.9041  -3.8804  -3.8651  -3.8287  -3.8135
    -3.6149  -3.5504  -3.5464  -3.5446  -3.4685  -3.4395  -3.4383  -3.3926
    -3.3674  -3.3286  -3.2912  -3.2412  -3.1970  -3.1634  -3.1092  -3.0722
    -3.0673  -2.9920  -2.9843  -2.9663  -2.9626  -2.9288  -2.8821  -2.8501
    -2.8138  -2.8055  -2.8012  -2.7515  -2.7424  -2.7334  -2.7060  -2.6894
    -2.5983  -2.5779  -2.5715  -2.5302  -2.1773  -2.0668  -2.0263  -2.0210
    -1.9692  -1.9356  -1.8571  -1.8262  -1.7240  -1.6893  -1.5986  -1.5981
    -1.5860  -1.5321  -1.4665  -1.3241  -0.3968  -0.3730  -0.3613  -0.3565
    -0.3082  -0.2467  -0.1989  -0.1839  -0.1605  -0.1113   0.0120   0.0501
     0.0858   0.0933   0.1060   0.1434   0.3835   0.4205   0.6073   0.6856
     1.3818   1.4551   1.5711   1.6390

          k =-0.5000 0.0000-0.7823 ( 26276 PWs)   bands (ev):

   -20.3359 -20.3359 -20.3305 -20.3305 -19.5217 -19.5217 -19.5209 -19.5209
   -17.5137 -17.5137 -17.5008 -17.5008 -14.8470 -14.8470 -14.8368 -14.8368
   -14.7619 -14.7619 -14.7370 -14.7370 -13.3696 -13.3696 -13.3255 -13.3255
   -12.6476 -12.6476 -12.6195 -12.6195 -12.3406 -12.3406 -12.2623 -12.2623
   -12.0442 -12.0442 -12.0349 -12.0349 -11.8550 -11.8550 -11.8476 -11.8476
   -11.5083 -11.5083 -11.4544 -11.4544 -10.5362 -10.5362 -10.5030 -10.5030
    -9.6312  -9.6312  -9.6218  -9.6218  -8.9541  -8.9541  -8.9280  -8.9280
    -8.6863  -8.6863  -8.5956  -8.5956  -8.5423  -8.5423  -8.4740  -8.4740
    -7.9069  -7.9069  -7.7799  -7.7799  -7.1548  -7.1548  -7.0361  -7.0361
    -6.7103  -6.7103  -6.6101  -6.6101  -6.4656  -6.4656  -6.4324  -6.4324
    -6.4026  -6.4026  -6.3073  -6.3073  -5.6575  -5.6575  -5.6159  -5.6159
    -5.5289  -5.5289  -5.5009  -5.5009  -5.3176  -5.3176  -5.1712  -5.1712
    -5.1279  -5.1279  -4.9926  -4.9926  -4.8744  -4.8744  -4.6757  -4.6757
    -4.6547  -4.6547  -4.6192  -4.6192  -4.4954  -4.4954  -4.4227  -4.4227
    -4.3302  -4.3302  -4.2710  -4.2710  -4.1850  -4.1850  -4.1077  -4.1077
    -4.0651  -4.0651  -3.9191  -3.9191  -3.8574  -3.8574  -3.8227  -3.8227
    -3.5813  -3.5813  -3.5357  -3.5357  -3.4499  -3.4499  -3.3954  -3.3954
    -3.3680  -3.3680  -3.2636  -3.2636  -3.1216  -3.1216  -3.1102  -3.1102
    -3.0200  -3.0200  -2.9917  -2.9917  -2.9280  -2.9280  -2.9007  -2.9007
    -2.8309  -2.8309  -2.7908  -2.7908  -2.7262  -2.7262  -2.6892  -2.6892
    -2.5826  -2.5826  -2.5442  -2.5442  -2.0641  -2.0641  -2.0253  -2.0253
    -1.9527  -1.9527  -1.8940  -1.8939  -1.7066  -1.7066  -1.6039  -1.6039
    -1.5717  -1.5717  -1.3835  -1.3835  -0.3932  -0.3932  -0.3868  -0.3868
    -0.2496  -0.2496  -0.1940  -0.1940  -0.0910  -0.0910   0.0034   0.0034
     0.0989   0.0989   0.1219   0.1219   0.3992   0.3992   0.6433   0.6433
     1.4143   1.4143   1.6000   1.6000

          k =-0.5000 0.3928-0.2433 ( 26248 PWs)   bands (ev):

   -20.3363 -20.3355 -20.3306 -20.3304 -19.5220 -19.5216 -19.5209 -19.5208
   -17.5146 -17.5131 -17.5014 -17.5000 -14.8500 -14.8434 -14.8380 -14.8348
   -14.7617 -14.7514 -14.7495 -14.7371 -13.3668 -13.3584 -13.3360 -13.3289
   -12.6559 -12.6493 -12.6238 -12.6019 -12.3443 -12.3316 -12.2783 -12.2576
   -12.0605 -12.0594 -12.0213 -12.0120 -11.8782 -11.8774 -11.8271 -11.8228
   -11.5077 -11.5064 -11.4620 -11.4474 -10.5603 -10.5496 -10.4894 -10.4767
    -9.6662  -9.6580  -9.5918  -9.5915  -8.9958  -8.9942  -8.9027  -8.8829
    -8.6993  -8.6581  -8.6283  -8.5892  -8.5499  -8.5214  -8.4885  -8.4730
    -7.8873  -7.8617  -7.7992  -7.7988  -7.1326  -7.1179  -7.0868  -7.0396
    -6.7200  -6.6795  -6.6377  -6.5804  -6.4829  -6.4592  -6.4471  -6.4433
    -6.4199  -6.3807  -6.3345  -6.2864  -5.7035  -5.6533  -5.6315  -5.6201
    -5.5312  -5.5295  -5.5014  -5.4956  -5.2625  -5.2256  -5.1901  -5.1733
    -5.1127  -5.1063  -5.0314  -5.0011  -4.8954  -4.7828  -4.7826  -4.7474
    -4.7314  -4.6976  -4.5871  -4.5441  -4.5152  -4.5060  -4.4845  -4.3978
    -4.3267  -4.2947  -4.2945  -4.2334  -4.1914  -4.1599  -4.1209  -4.0980
    -3.9805  -3.9546  -3.9472  -3.9294  -3.8848  -3.8764  -3.8278  -3.8276
    -3.5787  -3.5468  -3.5278  -3.5162  -3.4550  -3.4517  -3.4329  -3.3801
    -3.3679  -3.3362  -3.3337  -3.2775  -3.1827  -3.1486  -3.1156  -3.0766
    -3.0408  -3.0281  -2.9674  -2.9611  -2.9546  -2.9282  -2.9222  -2.8691
    -2.8425  -2.8391  -2.7750  -2.7553  -2.7364  -2.7114  -2.6990  -2.6958
    -2.5860  -2.5750  -2.5501  -2.5269  -2.1458  -2.0757  -2.0199  -2.0172
    -1.9724  -1.9717  -1.8315  -1.8082  -1.6911  -1.6676  -1.6325  -1.6137
    -1.5837  -1.5711  -1.4211  -1.3569  -0.3796  -0.3638  -0.3600  -0.3465
    -0.3053  -0.2798  -0.1956  -0.1832  -0.1668  -0.1260   0.0207   0.0482
     0.0814   0.0879   0.1124   0.1351   0.4296   0.4796   0.5397   0.6101
     1.4160   1.4496   1.5928   1.6256

          k =-0.5000 0.3928-0.7823 ( 26274 PWs)   bands (ev):

   -20.3359 -20.3358 -20.3306 -20.3306 -19.5217 -19.5217 -19.5210 -19.5210
   -17.5137 -17.5137 -17.5008 -17.5008 -14.8445 -14.8445 -14.8385 -14.8385
   -14.7569 -14.7569 -14.7429 -14.7429 -13.3683 -13.3683 -13.3272 -13.3272
   -12.6402 -12.6402 -12.6251 -12.6251 -12.3387 -12.3387 -12.2662 -12.2662
   -12.0449 -12.0449 -12.0335 -12.0335 -11.8536 -11.8536 -11.8490 -11.8490
   -11.5073 -11.5073 -11.4555 -11.4555 -10.5330 -10.5330 -10.5052 -10.5052
    -9.6296  -9.6296  -9.6243  -9.6243  -8.9482  -8.9482  -8.9325  -8.9325
    -8.6665  -8.6665  -8.6194  -8.6194  -8.5424  -8.5424  -8.4788  -8.4788
    -7.9014  -7.9014  -7.7775  -7.7775  -7.1447  -7.1447  -7.0467  -7.0467
    -6.6837  -6.6837  -6.6268  -6.6268  -6.4736  -6.4736  -6.4324  -6.4324
    -6.3830  -6.3830  -6.3311  -6.3311  -5.6780  -5.6780  -5.6042  -5.6042
    -5.5252  -5.5252  -5.5068  -5.5068  -5.2641  -5.2641  -5.2037  -5.2037
    -5.1041  -5.1041  -5.0231  -5.0231  -4.8225  -4.8225  -4.7160  -4.7160
    -4.6645  -4.6645  -4.6306  -4.6306  -4.5447  -4.5447  -4.4174  -4.4174
    -4.2970  -4.2970  -4.2576  -4.2576  -4.1987  -4.1987  -4.1421  -4.1421
    -4.0184  -4.0184  -3.9338  -3.9338  -3.8567  -3.8567  -3.8207  -3.8207
    -3.5404  -3.5404  -3.5163  -3.5163  -3.4466  -3.4466  -3.4160  -3.4160
    -3.3470  -3.3470  -3.3003  -3.3003  -3.1344  -3.1344  -3.1015  -3.1015
    -3.0294  -3.0294  -3.0030  -3.0030  -2.9252  -2.9251  -2.9071  -2.9071
    -2.8135  -2.8135  -2.7999  -2.7999  -2.7396  -2.7396  -2.6803  -2.6803
    -2.5683  -2.5683  -2.5408  -2.5408  -2.0765  -2.0765  -2.0208  -2.0208
    -1.9291  -1.9291  -1.8879  -1.8879  -1.6867  -1.6867  -1.6323  -1.6323
    -1.5777  -1.5777  -1.3843  -1.3843  -0.3995  -0.3995  -0.3679  -0.3679
    -0.2848  -0.2848  -0.1596  -0.1596  -0.1110  -0.1110   0.0115   0.0115
     0.0945   0.0945   0.1201   0.1201   0.4495   0.4495   0.5743   0.5743
     1.4280   1.4280   1.6033   1.6033

!    total energy              =   -1189.57420773 Ry
     Harris-Foulkes estimate   =   -1189.57420777 Ry
     estimated scf accuracy    <       0.00000005 Ry

     The total energy is the sum of the following terms:

     one-electron contribution =    -885.90755184 Ry
     hartree contribution      =     581.18435968 Ry
     xc contribution           =    -360.38486083 Ry
     ewald contribution        =    -523.78767641 Ry
     Dispersion Correction     =      -0.67847833 Ry

     convergence has been achieved in  11 iterations

     Forces acting on atoms (Ry/au):

     atom    1 type  1   force =     0.01861478   -0.01317947   -0.03249566
     atom    2 type  1   force =    -0.01861478    0.01317947    0.03249566
     atom    3 type  1   force =    -0.01861478   -0.01317947    0.03249566
     atom    4 type  1   force =     0.01861478    0.01317947   -0.03249566
     atom    5 type  1   force =     0.00981270    0.00097481   -0.00426237
     atom    6 type  1   force =    -0.00981270   -0.00097481    0.00426237
     atom    7 type  1   force =    -0.00981270    0.00097481    0.00426237
     atom    8 type  1   force =     0.00981270   -0.00097481   -0.00426237
     atom    9 type  1   force =     0.02123340    0.00978184    0.00313553
[...]
     atom   14 type  1   force =     0.00008050   -0.00046841   -0.00073699
     atom   15 type  1   force =     0.00008050    0.00046841   -0.00073699
     atom   16 type  1   force =    -0.00008050   -0.00046841    0.00073699
     atom   17 type  1   force =    -0.00024571   -0.00029139   -0.00031363
     atom   18 type  1   force =     0.00024571    0.00029139    0.00031363
     atom   19 type  1   force =     0.00024571   -0.00029139    0.00031363
     atom   20 type  1   force =    -0.00024571    0.00029139   -0.00031363
     atom   21 type  1   force =    -0.00039204   -0.00015131   -0.00004580
     atom   22 type  1   force =     0.00039204    0.00015131    0.00004580
     atom   23 type  1   force =     0.00039204   -0.00015131    0.00004580
     atom   24 type  1   force =    -0.00039204    0.00015131   -0.00004580
     atom   25 type  1   force =    -0.00063538    0.00010495    0.00033361
     atom   26 type  1   force =     0.00063538   -0.00010495   -0.00033361
     atom   27 type  1   force =     0.00063538    0.00010495   -0.00033361
     atom   28 type  1   force =    -0.00063538   -0.00010495    0.00033361
     atom   29 type  1   force =    -0.00036965   -0.00032643    0.00033188
     atom   30 type  1   force =     0.00036965    0.00032643   -0.00033188
     atom   31 type  1   force =     0.00036965   -0.00032643   -0.00033188
     atom   32 type  1   force =    -0.00036965    0.00032643    0.00033188
     atom   33 type  1   force =    -0.00055778   -0.00030291   -0.00021048
     atom   34 type  1   force =     0.00055778    0.00030291    0.00021048
     atom   35 type  1   force =     0.00055778   -0.00030291    0.00021048
     atom   36 type  1   force =    -0.00055778    0.00030291   -0.00021048
     atom   37 type  1   force =    -0.00019393   -0.00017413    0.00004313
     atom   38 type  1   force =     0.00019393    0.00017413   -0.00004313
     atom   39 type  1   force =     0.00019393   -0.00017413   -0.00004313
     atom   40 type  1   force =    -0.00019393    0.00017413    0.00004313
     atom   41 type  1   force =     0.00055362    0.00030049    0.00022091
     atom   42 type  1   force =    -0.00055362   -0.00030049   -0.00022091
     atom   43 type  1   force =    -0.00055362    0.00030049   -0.00022091
     atom   44 type  1   force =     0.00055362   -0.00030049    0.00022091
     atom   45 type  1   force =    -0.00016193   -0.00040685   -0.00041917
     atom   46 type  1   force =     0.00016193    0.00040685    0.00041917
     atom   47 type  1   force =     0.00016193   -0.00040685    0.00041917
     atom   48 type  1   force =    -0.00016193    0.00040685   -0.00041917
     atom   49 type  1   force =    -0.00073536   -0.00017898    0.00040118
     atom   50 type  1   force =     0.00073536    0.00017898   -0.00040118
     atom   51 type  1   force =     0.00073536   -0.00017898   -0.00040118
     atom   52 type  1   force =    -0.00073536    0.00017898    0.00040118
     atom   53 type  1   force =     0.00047794    0.00034188   -0.00026257
     atom   54 type  1   force =    -0.00047794   -0.00034188    0.00026257
     atom   55 type  1   force =    -0.00047794    0.00034188    0.00026257
     atom   56 type  1   force =     0.00047794   -0.00034188   -0.00026257
     atom   57 type  1   force =     0.00022408   -0.00029697   -0.00015660
     atom   58 type  1   force =    -0.00022408    0.00029697    0.00015660
     atom   59 type  1   force =    -0.00022408   -0.00029697    0.00015660
     atom   60 type  1   force =     0.00022408    0.00029697   -0.00015660
     atom   61 type  1   force =    -0.00038428   -0.00010915   -0.00015883
     atom   62 type  1   force =     0.00038428    0.00010915    0.00015883
     atom   63 type  1   force =     0.00038428   -0.00010915    0.00015883
     atom   64 type  1   force =    -0.00038428    0.00010915   -0.00015883
     atom   65 type  1   force =    -0.00030428    0.00015966    0.00018925
     atom   66 type  1   force =     0.00030428   -0.00015966   -0.00018925
     atom   67 type  1   force =     0.00030428    0.00015966   -0.00018925
     atom   68 type  1   force =    -0.00030428   -0.00015966    0.00018925
     atom   69 type  2   force =     0.00013297   -0.00006728    0.00000343
     atom   70 type  2   force =    -0.00013297    0.00006728   -0.00000343
     atom   71 type  2   force =    -0.00013297   -0.00006728   -0.00000343
     atom   72 type  2   force =     0.00013297    0.00006728    0.00000343
     atom   73 type  2   force =    -0.00006525    0.00017160   -0.00038341
     atom   74 type  2   force =     0.00006525   -0.00017160    0.00038341
     atom   75 type  2   force =     0.00006525    0.00017160    0.00038341
     atom   76 type  2   force =    -0.00006525   -0.00017160   -0.00038341
     atom   77 type  2   force =     0.00087567    0.00043887    0.00058625
     atom   78 type  2   force =    -0.00087567   -0.00043887   -0.00058625
     atom   79 type  2   force =    -0.00087567    0.00043887   -0.00058625
     atom   80 type  2   force =     0.00087567   -0.00043887    0.00058625
     atom   81 type  2   force =     0.00018808   -0.00020418   -0.00055106
     atom   82 type  2   force =    -0.00018808    0.00020418    0.00055106
     atom   83 type  2   force =    -0.00018808   -0.00020418    0.00055106
     atom   84 type  2   force =     0.00018808    0.00020418   -0.00055106
     atom   85 type  2   force =    -0.00010776   -0.00012468    0.00020108
     atom   86 type  2   force =     0.00010776    0.00012468   -0.00020108
     atom   87 type  2   force =     0.00010776   -0.00012468   -0.00020108
     atom   88 type  2   force =    -0.00010776    0.00012468    0.00020108
     atom   89 type  2   force =     0.00008851    0.00034682   -0.00049283
     atom   90 type  2   force =    -0.00008851   -0.00034682    0.00049283
     atom   91 type  2   force =    -0.00008851    0.00034682    0.00049283
     atom   92 type  2   force =     0.00008851   -0.00034682   -0.00049283
     atom   93 type  2   force =     0.00045563    0.00002828    0.00007044
     atom   94 type  2   force =    -0.00045563   -0.00002828   -0.00007044
     atom   95 type  2   force =    -0.00045563    0.00002828   -0.00007044
     atom   96 type  2   force =     0.00045563   -0.00002828    0.00007044
     atom   97 type  2   force =     0.00044796   -0.00019533   -0.00067573
     atom   98 type  2   force =    -0.00044796    0.00019533    0.00067573
     atom   99 type  2   force =    -0.00044796   -0.00019533    0.00067573
     atom  100 type  2   force =     0.00044796    0.00019533   -0.00067573
     atom  101 type  2   force =     0.00059468    0.00034605   -0.00038087
     atom  102 type  2   force =    -0.00059468   -0.00034605    0.00038087
     atom  103 type  2   force =    -0.00059468    0.00034605    0.00038087
     atom  104 type  2   force =     0.00059468   -0.00034605   -0.00038087
     atom  105 type  2   force =    -0.00019297   -0.00044299   -0.00024387
     atom  106 type  2   force =     0.00019297    0.00044299    0.00024387
     atom  107 type  2   force =     0.00019297   -0.00044299    0.00024387
     atom  108 type  2   force =    -0.00019297    0.00044299   -0.00024387
     atom  109 type  2   force =     0.00004340   -0.00024837   -0.00011438
     atom  110 type  2   force =    -0.00004340    0.00024837    0.00011438
     atom  111 type  2   force =    -0.00004340   -0.00024837    0.00011438
     atom  112 type  2   force =     0.00004340    0.00024837   -0.00011438
     atom  113 type  2   force =    -0.00017971    0.00009299    0.00020890
     atom  114 type  2   force =     0.00017971   -0.00009299   -0.00020890
     atom  115 type  2   force =     0.00017971    0.00009299   -0.00020890
     atom  116 type  2   force =    -0.00017971   -0.00009299    0.00020890
     atom  117 type  2   force =    -0.00007121    0.00017657   -0.00053220
     atom  118 type  2   force =     0.00007121   -0.00017657    0.00053220
     atom  119 type  2   force =     0.00007121    0.00017657    0.00053220
     atom  120 type  2   force =    -0.00007121   -0.00017657   -0.00053220
     atom  121 type  2   force =    -0.00002048    0.00042272   -0.00003429
     atom  122 type  2   force =     0.00002048   -0.00042272    0.00003429
     atom  123 type  2   force =     0.00002048    0.00042272    0.00003429
     atom  124 type  2   force =    -0.00002048   -0.00042272   -0.00003429
     atom  125 type  2   force =    -0.00028089    0.00011257    0.00015570
     atom  126 type  2   force =     0.00028089   -0.00011257   -0.00015570
     atom  127 type  2   force =     0.00028089    0.00011257   -0.00015570
     atom  128 type  2   force =    -0.00028089   -0.00011257    0.00015570
     atom  129 type  2   force =     0.00012808   -0.00001030    0.00022821
     atom  130 type  2   force =    -0.00012808    0.00001030   -0.00022821
     atom  131 type  2   force =    -0.00012808   -0.00001030   -0.00022821
     atom  132 type  2   force =     0.00012808    0.00001030    0.00022821
     atom  133 type  2   force =    -0.00019279    0.00075721    0.00004189
     atom  134 type  2   force =     0.00019279   -0.00075721   -0.00004189
     atom  135 type  2   force =     0.00019279    0.00075721   -0.00004189
     atom  136 type  2   force =    -0.00019279   -0.00075721    0.00004189
     atom  137 type  4   force =     0.00003637   -0.00009082   -0.00011696
     atom  138 type  4   force =    -0.00003637    0.00009082    0.00011696
     atom  139 type  4   force =    -0.00003637   -0.00009082    0.00011696
     atom  140 type  4   force =     0.00003637    0.00009082   -0.00011696
     atom  141 type  3   force =    -0.00001441    0.00033970   -0.00017089
     atom  142 type  3   force =     0.00001441   -0.00033970    0.00017089
     atom  143 type  3   force =     0.00001441    0.00033970    0.00017089
     atom  144 type  3   force =    -0.00001441   -0.00033970   -0.00017089
     atom  145 type  3   force =     0.00051533   -0.00014798   -0.00040068
     atom  146 type  3   force =    -0.00051533    0.00014798    0.00040068
     atom  147 type  3   force =    -0.00051533   -0.00014798    0.00040068
     atom  148 type  3   force =     0.00051533    0.00014798   -0.00040068

     Total force =     0.006868     Total SCF correction =     0.000034

     bfgs converged in  42 scf cycles and  41 bfgs steps
     (criteria: energy < 0.10E-03, force < 0.10E-02)

     End of BFGS Geometry Optimization

     Final energy   =   -1189.6653209617 Ry
Begin final coordinates

ATOMIC_POSITIONS (angstrom)
C        4.923558213   3.444501058   4.505462132
C        1.724420787   6.840497942   6.738736868
C        4.460430787   8.587002058   1.116637868
C        2.187548213   1.697998942  10.127562132
C        3.670690784   2.862064755   4.256097329
C        2.977289216   7.422935245   6.988101671
C        5.713299216   8.004564755   1.366001671
C        0.934680784   2.280435245   9.878197329
C        3.478061870   2.065550849   3.137063146
C        3.169917130   8.219449151   8.107135854
C        5.905928130   7.208050849   2.485035854
C        0.742051870   3.076949151   8.759163146
C        4.531203754   1.834009569   2.241935606
C        2.116776246   8.450990431   9.002264394
C        4.852786246   6.976509569   3.380164394
C        1.795192754   3.308490431   7.864034606
C        5.766939849   2.418884270   2.472996108
C        0.881040151   7.866115730   8.771203892
C        3.617050151   7.561384270   3.149103892
C        3.030928849   2.723615730   8.095096108
C        6.003966284   3.241307787   3.594825870
C        0.644013716   7.043692213   7.649373130
C        3.380023716   8.383807787   2.027274130
C        3.267955284   1.901192213   9.216925870
C        7.295754255   3.904072138   3.862622049
C       -0.647774255   6.380927862   7.381577951
C        2.088235745   9.046572138   1.759477951
C        4.559744255   1.238427862   9.484722049
C        8.415821996   3.730043984   2.976341611
C       -1.767842996   6.554956016   8.267858389
C        0.968167004   8.872543984   2.645758389
C        5.679811996   1.412456016   8.598440611
C        9.598699410   4.396928900   3.164451674
C       -2.950720410   5.888071100   8.079748326
C       -0.214710410   9.539427900   2.457648326
C        6.862689410   0.745571100   8.786551674
C       10.799399174   4.270502877   2.399224209
C       -4.151419174   6.014497123   8.844975791
C       -1.415409174   9.413001877   3.222875791
C        8.063389174   0.871997123   8.021323209
C       10.973392739   3.335523808   1.348586204
C       -4.325412739   6.949476192   9.895613796
C       -1.589402739   8.478023808   4.273513796
C        8.237382739   1.806976192   6.970686204
C        0.045604013   3.212642794   0.673041816
C        6.602375987   7.072357206  10.571157184
C        9.338385987   8.355142794   4.949057184
C       -2.690405987   1.929857206   6.295141816
C        1.163557014   4.037550782   0.999056204
C        5.484422986   6.247449218  10.245142796
C        8.220432986   9.180050782   4.623043796
C       -1.572452986   1.104949218   6.621156204
C        0.997930459   4.974953314   2.055672910
C        5.650048541   5.310046686   9.188527090
C        8.386059541  10.117453314   3.566427090
C       -1.738079541   0.167546686   7.677771910
C       -0.202154502   5.074774295   2.725294469
C        6.850134502   5.210225705   8.518904531
C        9.586144502  10.217274295   2.896804531
C       -2.938165502   0.067725705   8.347394469
C       -2.989237506   2.951132573  10.505591731
C        9.637217506   7.333868427   0.738607269
C        6.901207506   8.093631573   6.360707269
C       -0.253227506   2.191367427   4.883491731
C        3.451039375   4.817587749   0.638286756
C        3.196940625   5.467412251  10.605913244
C        5.932950625   9.960087749   4.983813244
C        0.715028375   0.324912251   6.260385756
H        2.862690889   3.069134162   4.957770416
H        3.785288111   7.215864838   6.286429584
H        6.521299111   8.211634162   0.664329584
H        0.126680889   2.073364838  10.579869416
H        2.500425329   1.619592175   2.947296296
H        4.147553671   8.665407825   8.296902704
H        6.883563671   6.762092175   2.674803704
H       -0.235584671   3.522907825   8.569396296
H        4.382382348   1.196134028   1.371175182
H        2.265596652   9.088865972   9.873023818
H        5.001607652   6.338634028   4.250924818
H        1.646372348   3.946365972   6.993275182
H        6.567348797   2.221826462   1.761605749
H        0.080630203   8.063172538   9.482594251
H        2.816640203   7.364326462   3.860494251
H        3.831338797   2.920672538   7.383705749
H        8.309826032   3.042685292   2.139497479
H       -1.661847032   7.242314708   9.104702521
H        1.074162968   8.185185292   3.482602521
H        5.573816032   2.099814708   7.761596479
H        9.641569949   5.091951637   4.010013093
H       -2.993589949   5.193048363   7.234185907
H       -0.257579949  10.234451637   1.612085907
H        6.905558949   0.050548363   9.632113093
H       10.148894410   2.682195940   1.060472800
H       -3.500915410   7.602804060  10.183727200
H       -0.764905410   7.824695940   4.561627200
H        7.412884410   2.460304060   6.682571800
H        0.121291773   2.475288014  -0.121883274
H        6.526688227   7.809711986  11.366082274
H        9.262698227   7.617787014   5.743983274
H       -2.614718227   2.667211986   5.500216726
H        1.826103871   5.611893599   2.356233200
H        4.821875129   4.673106401   8.887966800
H        7.557886129   0.469393599   3.265866800
H       -0.909906129   9.815606401   7.978332200
H       -0.299533458   5.792286694   3.541330270
H        6.947513458   4.492713306   7.702869730
H        9.683523458   0.649786694   2.080769730
H       -3.035543458   9.635213306   9.163430270
H       -3.181857517   1.933406212  10.878962477
H        9.829837517   8.351593788   0.365236523
H        7.093827517   7.075906212   5.987336523
H       -0.445847517   3.209093788   5.256862477
H       -1.969567863   2.991283324  10.111612282
H        8.617546863   7.293716676   1.132587718
H        5.881536863   8.133783324   6.754687718
H        0.766443137   2.151216676   4.489512282
H       -3.688818639   3.152380091   9.680741778
H       10.336798639   7.132618909   1.563457222
H        7.600788639   8.294880091   7.185557222
H       -0.952808639   1.990118909   4.058641778
H        3.150286259   5.872565650   0.549647029
H        3.497693741   4.412434350  10.694551971
H        6.233703741   0.730065650   5.072452971
H        0.414276259   9.554934350   6.171747029
H        4.268924513   4.626441107  -0.063238679
H        2.379054487   5.658558893  11.307438679
H        5.115064487   9.768941107   5.685338679
H        1.532914513   0.516058893   5.558861321
H        3.818958845   4.648923984   1.662177562
H        2.829021155   5.636075016   9.582022438
H        5.565031155   9.791424984   3.959922438
H        1.082948845   0.493576016   7.284276562
H        6.072319535   4.528914638   5.530262703
H        0.575660465   5.756085362   5.713937297
H       -2.160349535   9.671414638  11.336036297
H        8.808329535   0.613585362  -0.091837297
N        2.337452366   3.933160411   0.324578396
N        4.310527634   6.351839589  10.919620604
N        7.046537634   9.075660411   5.297521604
N       -0.398557634   1.209339589   5.946678396
O        5.080956825   4.198266740   5.611203040
O        1.567023175   6.086733260   5.632995960
O       -1.168987825   9.340766740  11.255095960
O        7.816966825   0.944233260  -0.010896960
O        7.393209495   4.644033838   4.908668271
O       -0.745230495   5.640966162   6.335530729
O        1.990779505   9.786533838   0.713430729
O        4.657199495   0.498466162  10.530768271
End final coordinates



     Writing output data file HCpot.save
 
     init_run     :    101.44s CPU    105.95s WALL (       1 calls)
     electrons    :  85867.40s CPU  93454.48s WALL (      42 calls)
     update_pot   :     34.65s CPU     35.93s WALL (      41 calls)
     forces       :   2156.98s CPU   2191.64s WALL (      42 calls)

     Called by init_run:
     wfcinit      :     92.40s CPU     96.05s WALL (       1 calls)
     potinit      :      2.11s CPU      2.15s WALL (       1 calls)

     Called by electrons:
     c_bands      :  74618.21s CPU  81577.00s WALL (     445 calls)
     sum_band     :   8910.51s CPU   9326.76s WALL (     445 calls)
     v_of_rho     :    111.89s CPU    123.01s WALL (     487 calls)
     newd         :   1902.04s CPU   1931.98s WALL (     487 calls)
     mix_rho      :     14.53s CPU     17.53s WALL (     445 calls)

     Called by c_bands:
     init_us_2    :    569.25s CPU    585.65s WALL (    7464 calls)
     cegterg      :  72421.09s CPU  74852.77s WALL (    3560 calls)

     Called by *egterg:
     h_psi        :  41520.91s CPU  43291.69s WALL (   18787 calls)
     s_psi        :   9602.05s CPU   9608.31s WALL (   18787 calls)
     g_psi        :    442.78s CPU    442.61s WALL (   15219 calls)
     cdiaghg      :   2372.31s CPU   2373.01s WALL (   18451 calls)

     Called by h_psi:
     add_vuspsi   :   9597.77s CPU   9604.21s WALL (   18787 calls)

     General routines
     calbec       :  11814.71s CPU  11808.45s WALL (   22683 calls)
     fft          :     43.02s CPU     50.37s WALL (    6332 calls)
     fftw         :  23269.56s CPU  25219.79s WALL ( 5065012 calls)
     davcio       :      1.29s CPU   4769.70s WALL (   11024 calls)
 
     Parallel routines
     fft_scatter  :   3166.44s CPU   3987.51s WALL ( 5071344 calls)
 
     PWSCF        :     1d    0h32m CPU        1d    2h40m WALL

 
   This run was terminated on:  22: 1: 1   8Dec2016            

=------------------------------------------------------------------------------=
   JOB DONE.
=------------------------------------------------------------------------------=
