
     Program PWSCF v.5.0.2 (svn rev. 9392) starts on 28Nov2016 at 16:29:26 

     This program is part of the open-source Quantum ESPRESSO suite
     for quantum simulation of materials; please cite
         "P. Giannozzi et al., J. Phys.:Condens. Matter 21 395502 (2009);
          URL http://www.quantum-espresso.org", 
     in publications or presentations arising from this work. More details at
     http://www.quantum-espresso.org/quote.php

     Parallel version (MPI), running on     1 processors

     Current dimensions of program PWSCF are:
     Max number of different atomic species (ntypx) = 10
     Max number of k-points (npk) =  40000
     Max angular momentum in pseudopotentials (lmaxx) =  3
     Waiting for input...
     Reading input from standard input

     IMPORTANT: XC functional enforced from input :
     Exchange-correlation      = PBE ( 1 4 3 4 0)
     EXX-fraction              =        0.00
     Any further DFT definition will be discarded
     Please, verify this is what you really want


     Subspace diagonalization in iterative solution of the eigenvalue problem:
     a serial algorithm will be used

 
     G-vector sticks info
     --------------------
     sticks:   dense  smooth     PW     G-vecs:    dense   smooth      PW
     Sum        4249    4249   1171               209979   209979   30419
 


     bravais-lattice index     =            0
     lattice parameter (alat)  =      22.9035  a.u.
     unit-cell volume          =    9458.7131 (a.u.)^3
     number of atoms/cell      =          148
     number of atomic types    =            4
     number of electrons       =       408.00
     number of Kohn-Sham states=          204
     kinetic-energy cutoff     =      30.0000  Ry
     charge density cutoff     =     120.0000  Ry
     convergence threshold     =      1.0E-07
     mixing beta               =       0.7000
     number of iterations used =            8  plain     mixing
     Exchange-correlation      = PBE ( 1 4 3 4 0)
     EXX-fraction              =        0.00
     nstep                     =           50


     celldm(1)=  22.903481  celldm(2)=   0.000000  celldm(3)=   0.000000
     celldm(4)=   0.000000  celldm(5)=   0.000000  celldm(6)=   0.000000

     crystal axes: (cart. coord. in units of alat)
               a(1) = (   1.000000   0.000000   0.000000 )  
               a(2) = (   0.000000   0.848597   0.000000 )  
               a(3) = (  -0.451487   0.000000   0.927739 )  

     reciprocal axes: (cart. coord. in units 2 pi/alat)
               b(1) = (  1.000000  0.000000  0.486653 )  
               b(2) = (  0.000000  1.178415  0.000000 )  
               b(3) = (  0.000000  0.000000  1.077889 )  


     PseudoPot. # 1 for  C read from file:
     /data/home/btx156/espresso/pseudo/C.blyp-hgh.UPF
     MD5 check sum: 40075daedda6aecb39abd2ed8496c111
     Pseudo is Norm-conserving, Zval =  4.0
     Generated in analytical, separable form
     Using radial grid of 1073 points,  1 beta functions with: 
                l(1) =   0

     PseudoPot. # 2 for  H read from file:
     /data/home/btx156/espresso/pseudo/H.blyp-hgh.UPF
     MD5 check sum: c576e69559cde411e611be972c763230
     Pseudo is Norm-conserving, Zval =  1.0
     Generated in analytical, separable form
     Using radial grid of  929 points,  0 beta functions with: 

     PseudoPot. # 3 for  O read from file:
     /data/home/btx156/espresso/pseudo/O.blyp-hgh.UPF
     MD5 check sum: d0b7156309aa9befef28faac7bc56342
     Pseudo is Norm-conserving, Zval =  6.0
     Generated in analytical, separable form
     Using radial grid of 1095 points,  1 beta functions with: 
                l(1) =   0

     PseudoPot. # 4 for  N read from file:
     /data/home/btx156/espresso/pseudo/N.blyp-hgh.UPF
     MD5 check sum: 47a30722481031dba5680b484bd2f874
     Pseudo is Norm-conserving, Zval =  5.0
     Generated in analytical, separable form
     Using radial grid of 1085 points,  1 beta functions with: 
                l(1) =   0

     atomic species   valence    mass     pseudopotential
        C              4.00    12.00000      C( 1.00)
        H              1.00     1.00790      H( 1.00)
        O              6.00    15.99940      O( 1.00)
        N              5.00    14.00670      N( 1.00)

      4 Sym. Ops., with inversion, found ( 2 have fractional translation)



   Cartesian axes

     site n.     atom                  positions (alat units)
         1           C   tau(   1) = (   0.4004262   0.2849289   0.3771819  )
         2           C   tau(   2) = (   0.1480869   0.5636683   0.5505573  )
         3           C   tau(   3) = (   0.3738303   0.7092277   0.0866877  )
         4           C   tau(   4) = (   0.1746828   0.1393697   0.8410516  )
         5           C   tau(   5) = (   0.2978522   0.2328964   0.3537414  )
         6           C   tau(   6) = (   0.2506610   0.6157010   0.5739978  )
         7           C   tau(   7) = (   0.4764044   0.6571951   0.1101282  )
         8           C   tau(   8) = (   0.0721088   0.1914023   0.8176110  )
         9           C   tau(   9) = (   0.2848444   0.1667775   0.2594209  )
        10           C   tau(  10) = (   0.2636687   0.6818199   0.6683183  )
        11           C   tau(  11) = (   0.4894122   0.5910762   0.2044487  )
        12           C   tau(  12) = (   0.0591010   0.2575212   0.7232905  )
        13           C   tau(  13) = (   0.3741965   0.1513648   0.1857844  )
        14           C   tau(  14) = (   0.1743167   0.6972326   0.7419549  )
        15           C   tau(  15) = (   0.4000601   0.5756635   0.2780853  )
        16           C   tau(  16) = (   0.1484531   0.2729339   0.6496539  )
        17           C   tau(  17) = (   0.4748148   0.2044633   0.2063464  )
        18           C   tau(  18) = (   0.0736984   0.6441340   0.7213928  )
        19           C   tau(  19) = (   0.2994418   0.6287620   0.2575232  )
        20           C   tau(  20) = (   0.2490713   0.2198354   0.6702161  )
        21           C   tau(  21) = (   0.4917783   0.2720628   0.3014048  )
        22           C   tau(  22) = (   0.0567349   0.5765346   0.6263344  )
        23           C   tau(  23) = (   0.2824783   0.6963615   0.1624648  )
        24           C   tau(  24) = (   0.2660349   0.1522359   0.7652745  )
        25           C   tau(  25) = (   0.5986200   0.3283599   0.3226044  )
        26           C   tau(  26) = (  -0.0501068   0.5202375   0.6051349  )
        27           C   tau(  27) = (   0.1756366   0.7526586   0.1412652  )
        28           C   tau(  28) = (   0.3728766   0.0959388   0.7864741  )
        29           C   tau(  29) = (   0.6908749   0.3126930   0.2479696  )
        30           C   tau(  30) = (  -0.1423618   0.5359044   0.6797697  )
        31           C   tau(  31) = (   0.0833816   0.7369917   0.2159000  )
        32           C   tau(  32) = (   0.4651315   0.1116057   0.7118392  )
        33           C   tau(  33) = (   0.7900447   0.3680792   0.2626896  )
        34           C   tau(  34) = (  -0.2415315   0.4805181   0.6650497  )
        35           C   tau(  35) = (  -0.0157881   0.7923779   0.2011801  )
        36           C   tau(  36) = (   0.5643013   0.0562194   0.7265592  )
        37           C   tau(  37) = (   0.8903295   0.3552074   0.2000482  )
        38           C   tau(  38) = (  -0.3418163   0.4933900   0.7276911  )
        39           C   tau(  39) = (  -0.1160729   0.7795060   0.2638215  )
        40           C   tau(  40) = (   0.6645861   0.0690913   0.6639177  )
        41           C   tau(  41) = (   0.9044681   0.2766521   0.1130292  )
        42           C   tau(  42) = (  -0.3559549   0.5719453   0.8147100  )
        43           C   tau(  43) = (  -0.1302115   0.7009508   0.3508404  )
        44           C   tau(  44) = (   0.6787247   0.1476466   0.5768989  )
        45           C   tau(  45) = (   0.0047769   0.2638038   0.0580761  )
        46           C   tau(  46) = (   0.5437364   0.5847936   0.8696631  )
        47           C   tau(  47) = (   0.7694798   0.6881025   0.4057934  )
        48           C   tau(  48) = (  -0.2209665   0.1604949   0.5219458  )
        49           C   tau(  49) = (   0.0983231   0.3317971   0.0857310  )
        50           C   tau(  50) = (   0.4501902   0.5168003   0.8420082  )
        51           C   tau(  51) = (   0.6759336   0.7560957   0.3781386  )
        52           C   tau(  52) = (  -0.1274204   0.0925016   0.5496006  )
        53           C   tau(  53) = (   0.0855765   0.4103575   0.1737383  )
        54           C   tau(  54) = (   0.4629366   0.4382398   0.7540010  )
        55           C   tau(  55) = (   0.6886801   0.8346562   0.2901313  )
        56           C   tau(  56) = (  -0.1401669   0.0139411   0.6376079  )
        57           C   tau(  57) = (  -0.0154372   0.4204869   0.2282510  )
        58           C   tau(  58) = (   0.5639504   0.4281104   0.6994882  )
        59           C   tau(  59) = (   0.7896938   0.8447856   0.2356186  )
        60           C   tau(  60) = (  -0.2411807   0.0038118   0.6921206  )
        61           C   tau(  61) = (  -0.2447418   0.2400404   0.8673913  )
        62           C   tau(  62) = (   0.7932550   0.6085570   0.0603479  )
        63           C   tau(  63) = (   0.5675116   0.6643390   0.5242176  )
        64           C   tau(  64) = (  -0.0189984   0.1842583   0.4035216  )
        65           C   tau(  65) = (   0.2887941   0.3982169   0.0534059  )
        66           C   tau(  66) = (   0.2597191   0.4503804   0.8743334  )
        67           C   tau(  67) = (   0.4854625   0.8225156   0.4104637  )
        68           C   tau(  68) = (   0.0630506   0.0260817   0.5172755  )
        69           H   tau(  69) = (   0.2279889   0.2472056   0.4119144  )
        70           H   tau(  70) = (   0.3205243   0.6013917   0.5158249  )
        71           H   tau(  71) = (   0.5462678   0.6715043   0.0519552  )
        72           H   tau(  72) = (   0.0022455   0.1770930   0.8757840  )
        73           H   tau(  73) = (   0.2037074   0.1266092   0.2412365  )
        74           H   tau(  74) = (   0.3448057   0.7219882   0.6865027  )
        75           H   tau(  75) = (   0.5705491   0.5509078   0.2226331  )
        76           H   tau(  76) = (  -0.0220360   0.2976895   0.7051062  )
        77           H   tau(  77) = (   0.3653453   0.0980566   0.1112416  )
        78           H   tau(  78) = (   0.1831678   0.7505408   0.8164976  )
        79           H   tau(  79) = (   0.4089113   0.5223553   0.3526280  )
        80           H   tau(  80) = (   0.1396019   0.3262421   0.5751112  )
        81           H   tau(  81) = (   0.5435197   0.1918718   0.1464468  )
        82           H   tau(  82) = (   0.0049934   0.6567254   0.7812925  )
        83           H   tau(  83) = (   0.2307368   0.6161705   0.3174228  )
        84           H   tau(  84) = (   0.3177763   0.2324268   0.6103164  )
        85           H   tau(  85) = (   0.6832122   0.2530357   0.1784323  )
        86           H   tau(  86) = (  -0.1346991   0.5955616   0.7493069  )
        87           H   tau(  87) = (   0.0910443   0.6773344   0.2854373  )
        88           H   tau(  88) = (   0.4574688   0.1712630   0.6423019  )
        89           H   tau(  89) = (   0.7938831   0.4278029   0.3330537  )
        90           H   tau(  90) = (  -0.2453699   0.4207944   0.5946855  )
        91           H   tau(  91) = (  -0.0196265   0.8521016   0.1308159  )
        92           H   tau(  92) = (   0.5681397  -0.0035042   0.7969233  )
        93           H   tau(  93) = (   0.8337275   0.2230307   0.0883085  )
        94           H   tau(  94) = (  -0.2852143   0.6255667   0.8394308  )
        95           H   tau(  95) = (  -0.0594709   0.6473294   0.3755611  )
        96           H   tau(  96) = (   0.6079841   0.2012680   0.5521781  )
        97           H   tau(  97) = (   0.0104055   0.2006817  -0.0086456  )
        98           H   tau(  98) = (   0.5381077   0.6479156   0.9363848  )
        99           H   tau(  99) = (   0.7638511   0.6249803   0.4725153  )
       100           H   tau( 100) = (  -0.2153379   0.2236169   0.4552240  )
       101           H   tau( 101) = (   0.1565134   0.4628994   0.1998586  )
       102           H   tau( 102) = (   0.3919998   0.3856980   0.7278806  )
       103           H   tau( 103) = (   0.6177432   0.0386007   0.2640110  )
       104           H   tau( 104) = (  -0.0692300   0.8099966   0.6637282  )
       105           H   tau( 105) = (  -0.0243641   0.4811302   0.2970960  )
       106           H   tau( 106) = (   0.5728773   0.3674672   0.6306433  )
       107           H   tau( 107) = (   0.7986207   0.0568315   0.1667736  )
       108           H   tau( 108) = (  -0.2501075   0.7917659   0.7609657  )
       109           H   tau( 109) = (  -0.2602528   0.1537065   0.8980343  )
       110           H   tau( 110) = (   0.8087660   0.6948909   0.0297049  )
       111           H   tau( 111) = (   0.5830226   0.5780052   0.4935745  )
       112           H   tau( 112) = (  -0.0345094   0.2705922   0.4341647  )
       113           H   tau( 113) = (  -0.1597488   0.2434573   0.8312950  )
       114           H   tau( 114) = (   0.7082620   0.6051400   0.0964443  )
       115           H   tau( 115) = (   0.4825186   0.6677560   0.5603140  )
       116           H   tau( 116) = (   0.0659947   0.1808414   0.3674253  )
       117           H   tau( 117) = (  -0.3053614   0.2574937   0.7991337  )
       118           H   tau( 118) = (   0.8538746   0.5911035   0.1286055  )
       119           H   tau( 119) = (   0.6281312   0.6817924   0.5924751  )
       120           H   tau( 120) = (  -0.0796180   0.1668049   0.3352641  )
       121           H   tau( 121) = (   0.2613950   0.4865873   0.0434861  )
       122           H   tau( 122) = (   0.2871182   0.3620100   0.8842531  )
       123           H   tau( 123) = (   0.5128616   0.0622887   0.4203836  )
       124           H   tau( 124) = (   0.0356516   0.7863087   0.5073557  )
       125           H   tau( 125) = (   0.3588180   0.3826038  -0.0049861  )
       126           H   tau( 126) = (   0.1896951   0.4659936   0.9327254  )
       127           H   tau( 127) = (   0.4154385   0.8069025   0.4688557  )
       128           H   tau( 128) = (   0.1330746   0.0416949   0.4588836  )
       129           H   tau( 129) = (   0.3206756   0.3885421   0.1403093  )
       130           H   tau( 130) = (   0.2278376   0.4600552   0.7874300  )
       131           H   tau( 131) = (   0.4535810   0.8128409   0.3235603  )
       132           H   tau( 132) = (   0.0949322   0.0357566   0.6041789  )
       133           H   tau( 133) = (   0.4939782   0.3778103   0.4645189  )
       134           H   tau( 134) = (   0.0545350   0.4707870   0.4632204  )
       135           H   tau( 135) = (  -0.1712084   0.8021090   0.9270899  )
       136           H   tau( 136) = (   0.7197216   0.0464883   0.0006493  )
       137           N   tau( 137) = (   0.1976139   0.3213410   0.0296769  )
       138           N   tau( 138) = (   0.3508993   0.5272564   0.8980623  )
       139           N   tau( 139) = (   0.5766427   0.7456397   0.4341927  )
       140           N   tau( 140) = (  -0.0281295   0.1029577   0.4935466  )
       141           O   tau( 141) = (   0.4080096   0.3465415   0.4734961  )
       142           O   tau( 142) = (   0.1405036   0.5020558   0.4542431  )
       143           O   tau( 143) = (  -0.0852399   0.7708402   0.9181127  )
       144           O   tau( 144) = (   0.6337530   0.0777572   0.0096265  )
       145           O   tau( 145) = (   0.6108217   0.3932581   0.4113202  )
       146           O   tau( 146) = (  -0.0623086   0.4553392   0.5164190  )
       147           O   tau( 147) = (   0.1634348   0.8175568   0.0525493  )
       148           O   tau( 148) = (   0.3850783   0.0310406   0.8751899  )

     number of k points=     8
                       cart. coord. in units 2pi/alat
        k(    1) = (   0.0000000   0.0000000   0.0000000), wk =   0.1666667
        k(    2) = (   0.0000000   0.0000000  -0.5389445), wk =   0.1666667
        k(    3) = (   0.0000000   0.3928051   0.0000000), wk =   0.3333333
        k(    4) = (   0.0000000   0.3928051  -0.5389445), wk =   0.3333333
        k(    5) = (  -0.5000000   0.0000000  -0.2433264), wk =   0.1666667
        k(    6) = (  -0.5000000   0.0000000  -0.7822709), wk =   0.1666667
        k(    7) = (  -0.5000000   0.3928051  -0.2433264), wk =   0.3333333
        k(    8) = (  -0.5000000   0.3928051  -0.7822709), wk =   0.3333333

     Dense  grid:   209979 G-vectors     FFT dimensions: (  80,  72,  90)

     Largest allocated arrays     est. size (Mb)     dimensions
        Kohn-Sham Wavefunctions        81.79 Mb     (  26276,  204)
        NL pseudopotentials            32.08 Mb     (  26276,   80)
        Each V/rho on FFT grid          7.91 Mb     ( 518400)
        Each G-vector array             1.60 Mb     ( 209979)
        G-vector shells                 0.41 Mb     (  53673)
     Largest temporary arrays     est. size (Mb)     dimensions
        Auxiliary wavefunctions       327.17 Mb     (  26276,  816)
        Each subspace H/S matrix       10.16 Mb     ( 816, 816)
        Each <psi_i|beta_j> matrix      0.25 Mb     (     80,  204)
        Arrays for rho mixing          63.28 Mb     ( 518400,   8)

     Initial potential from superposition of free atoms

     starting charge  407.99591, renormalised to  408.00000
     Starting wfc are  388 randomized atomic wfcs

     total cpu time spent up to now is       73.6 secs

     Self-consistent Calculation

     iteration #  1     ecut=    30.00 Ry     beta=0.70
     Davidson diagonalization with overlap
     ethr =  1.00E-02,  avg # of iterations =  2.0

     total cpu time spent up to now is      225.0 secs

     total energy              =   -1147.90753714 Ry
     Harris-Foulkes estimate   =   -1159.02246068 Ry
     estimated scf accuracy    <      17.36440892 Ry

     iteration #  2     ecut=    30.00 Ry     beta=0.70
     Davidson diagonalization with overlap
     ethr =  4.26E-03,  avg # of iterations =  3.0

     total cpu time spent up to now is      381.8 secs

     total energy              =   -1151.04529116 Ry
     Harris-Foulkes estimate   =   -1160.96512557 Ry
     estimated scf accuracy    <      20.02588533 Ry

     iteration #  3     ecut=    30.00 Ry     beta=0.70
     Davidson diagonalization with overlap
     ethr =  4.26E-03,  avg # of iterations =  4.0

     total cpu time spent up to now is      505.5 secs

     total energy              =   -1154.69919258 Ry
     Harris-Foulkes estimate   =   -1155.03116313 Ry
     estimated scf accuracy    <       0.65764583 Ry

     iteration #  4     ecut=    30.00 Ry     beta=0.70
     Davidson diagonalization with overlap
     ethr =  1.61E-04,  avg # of iterations =  5.5

     total cpu time spent up to now is      656.5 secs

     total energy              =   -1154.84041437 Ry
     Harris-Foulkes estimate   =   -1155.02382051 Ry
     estimated scf accuracy    <       0.37655739 Ry

     iteration #  5     ecut=    30.00 Ry     beta=0.70
     Davidson diagonalization with overlap
     ethr =  9.23E-05,  avg # of iterations =  5.0

     total cpu time spent up to now is      785.6 secs

     total energy              =   -1154.91587178 Ry
     Harris-Foulkes estimate   =   -1154.96379649 Ry
     estimated scf accuracy    <       0.11616694 Ry

     iteration #  6     ecut=    30.00 Ry     beta=0.70
     Davidson diagonalization with overlap
     ethr =  2.85E-05,  avg # of iterations =  5.0

     total cpu time spent up to now is      902.7 secs

     total energy              =   -1154.93767274 Ry
     Harris-Foulkes estimate   =   -1154.94110873 Ry
     estimated scf accuracy    <       0.00787382 Ry

     iteration #  7     ecut=    30.00 Ry     beta=0.70
     Davidson diagonalization with overlap
     ethr =  1.93E-06,  avg # of iterations =  5.0

     total cpu time spent up to now is     1029.0 secs

     total energy              =   -1154.93939834 Ry
     Harris-Foulkes estimate   =   -1154.93984999 Ry
     estimated scf accuracy    <       0.00092634 Ry

     iteration #  8     ecut=    30.00 Ry     beta=0.70
     Davidson diagonalization with overlap
     ethr =  2.27E-07,  avg # of iterations =  4.0

     total cpu time spent up to now is     1162.6 secs

     total energy              =   -1154.93962481 Ry
     Harris-Foulkes estimate   =   -1154.93972199 Ry
     estimated scf accuracy    <       0.00023244 Ry

     iteration #  9     ecut=    30.00 Ry     beta=0.70
     Davidson diagonalization with overlap
     ethr =  5.70E-08,  avg # of iterations =  4.0

     total cpu time spent up to now is     1286.7 secs

     total energy              =   -1154.93967368 Ry
     Harris-Foulkes estimate   =   -1154.93969246 Ry
     estimated scf accuracy    <       0.00004648 Ry

     iteration # 10     ecut=    30.00 Ry     beta=0.70
     Davidson diagonalization with overlap
     ethr =  1.14E-08,  avg # of iterations =  4.0

     total cpu time spent up to now is     1404.4 secs

     total energy              =   -1154.93968313 Ry
     Harris-Foulkes estimate   =   -1154.93968400 Ry
     estimated scf accuracy    <       0.00000201 Ry

     iteration # 11     ecut=    30.00 Ry     beta=0.70
     Davidson diagonalization with overlap
     ethr =  4.92E-10,  avg # of iterations =  4.0

     total cpu time spent up to now is     1541.7 secs

     total energy              =   -1154.93968374 Ry
     Harris-Foulkes estimate   =   -1154.93968392 Ry
     estimated scf accuracy    <       0.00000045 Ry

     iteration # 12     ecut=    30.00 Ry     beta=0.70
     Davidson diagonalization with overlap
     ethr =  1.10E-10,  avg # of iterations =  4.0

     total cpu time spent up to now is     1669.9 secs

     End of self-consistent calculation

          k = 0.0000 0.0000 0.0000 ( 26273 PWs)   bands (ev):

   -20.6573 -20.6527 -20.6500 -20.6461 -19.5894 -19.5875 -19.5852 -19.5836
   -17.7283 -17.7254 -17.7184 -17.7145 -14.8184 -14.7998 -14.7971 -14.7775
   -14.7567 -14.7492 -14.7340 -14.7247 -13.3644 -13.3258 -13.3223 -13.3156
   -12.6490 -12.6413 -12.6323 -12.5964 -12.1828 -12.1525 -12.1097 -12.0718
   -11.8909 -11.8905 -11.8270 -11.8228 -11.7562 -11.7410 -11.7385 -11.7335
   -11.3343 -11.3287 -11.2852 -11.2508 -10.3837 -10.3751 -10.3709 -10.3458
    -9.4864  -9.4771  -9.4534  -9.4235  -8.7558  -8.7342  -8.6985  -8.6652
    -8.5196  -8.4564  -8.4141  -8.3655  -8.2409  -8.1918  -8.1849  -8.1513
    -7.6821  -7.5809  -7.5805  -7.5195  -6.8331  -6.8198  -6.7980  -6.7352
    -6.4802  -6.4283  -6.3768  -6.2727  -6.1569  -6.1438  -6.1362  -6.1209
    -5.9503  -5.9005  -5.8969  -5.8721  -5.4652  -5.4225  -5.3727  -5.3295
    -5.3140  -5.2638  -5.1911  -5.1658  -4.9700  -4.9314  -4.8911  -4.8321
    -4.7966  -4.7541  -4.7053  -4.6761  -4.5183  -4.4952  -4.4228  -4.3493
    -4.3346  -4.2947  -4.2100  -4.1999  -4.1934  -4.1010  -4.0703  -4.0370
    -3.9746  -3.8682  -3.8146  -3.7935  -3.7861  -3.7815  -3.7354  -3.7328
    -3.6154  -3.5367  -3.5152  -3.5019  -3.4996  -3.4712  -3.4630  -3.4412
    -3.1589  -3.1445  -3.1392  -3.1107  -3.0817  -2.9996  -2.9835  -2.9807
    -2.9459  -2.8805  -2.8660  -2.8552  -2.7986  -2.7710  -2.7567  -2.7531
    -2.6517  -2.6054  -2.6047  -2.5281  -2.5119  -2.4887  -2.4860  -2.4411
    -2.3666  -2.3466  -2.3291  -2.3159  -2.2315  -2.2301  -2.2135  -2.2075
    -2.2011  -2.1276  -2.1172  -2.1035  -1.7320  -1.6951  -1.6572  -1.6090
    -1.5450  -1.4505  -1.4417  -1.4325  -1.3080  -1.2852  -1.2538  -1.1858
    -1.1782  -1.1522  -1.1515  -0.9632  -0.1111  -0.0703  -0.0675  -0.0142
     0.0740   0.1248   0.1510   0.2303   0.2697   0.3141   0.3883   0.4215
     0.5305   0.6137   0.6243   0.6444   0.9043   0.9322   1.0541   1.1342
     1.6842   1.7329   1.8785   1.9277

          k = 0.0000 0.0000-0.5389 ( 26180 PWs)   bands (ev):

   -20.6471 -20.6471 -20.6445 -20.6444 -19.5812 -19.5812 -19.5770 -19.5770
   -17.7209 -17.7209 -17.7127 -17.7127 -14.8084 -14.8084 -14.7817 -14.7817
   -14.7500 -14.7500 -14.7241 -14.7241 -13.3522 -13.3522 -13.3028 -13.3028
   -12.6310 -12.6310 -12.6223 -12.6223 -12.1664 -12.1664 -12.0850 -12.0850
   -11.8558 -11.8558 -11.8513 -11.8513 -11.7440 -11.7440 -11.7361 -11.7361
   -11.3293 -11.3293 -11.2646 -11.2646 -10.3795 -10.3795 -10.3487 -10.3487
    -9.4822  -9.4822  -9.4290  -9.4290  -8.7294  -8.7294  -8.7015  -8.7015
    -8.4859  -8.4859  -8.3898  -8.3897  -8.2089  -8.2089  -8.1654  -8.1654
    -7.6588  -7.6588  -7.5157  -7.5157  -6.8551  -6.8551  -6.7370  -6.7370
    -6.4520  -6.4520  -6.3098  -6.3098  -6.1521  -6.1521  -6.1190  -6.1190
    -5.9310  -5.9309  -5.8730  -5.8730  -5.4079  -5.4079  -5.3496  -5.3496
    -5.2403  -5.2403  -5.2088  -5.2088  -4.9849  -4.9849  -4.8164  -4.8164
    -4.7681  -4.7681  -4.7089  -4.7089  -4.4859  -4.4859  -4.3829  -4.3829
    -4.3378  -4.3378  -4.2155  -4.2155  -4.1637  -4.1637  -4.0216  -4.0216
    -3.9280  -3.9280  -3.8279  -3.8279  -3.7379  -3.7379  -3.6989  -3.6989
    -3.6307  -3.6307  -3.4977  -3.4977  -3.4866  -3.4866  -3.4074  -3.4074
    -3.1726  -3.1726  -3.1278  -3.1278  -2.9856  -2.9856  -2.9774  -2.9774
    -2.9176  -2.9176  -2.8575  -2.8575  -2.7631  -2.7631  -2.7574  -2.7574
    -2.6615  -2.6615  -2.5767  -2.5767  -2.5276  -2.5276  -2.4187  -2.4187
    -2.3373  -2.3373  -2.2788  -2.2788  -2.2665  -2.2665  -2.1741  -2.1741
    -2.1548  -2.1548  -2.1119  -2.1119  -1.6829  -1.6829  -1.6264  -1.6264
    -1.5030  -1.5030  -1.4364  -1.4364  -1.2943  -1.2943  -1.2575  -1.2575
    -1.1633  -1.1633  -1.0342  -1.0342  -0.0888  -0.0888  -0.0391  -0.0391
     0.0733   0.0733   0.2281   0.2281   0.3173   0.3173   0.4020   0.4020
     0.5785   0.5786   0.6518   0.6518   0.9212   0.9212   1.0891   1.0891
     1.7089   1.7089   1.8978   1.8978

          k = 0.0000 0.3928 0.0000 ( 26230 PWs)   bands (ev):

   -20.6502 -20.6474 -20.6473 -20.6442 -19.5880 -19.5866 -19.5787 -19.5764
   -17.7231 -17.7225 -17.7160 -17.7130 -14.8075 -14.7966 -14.7931 -14.7842
   -14.7488 -14.7405 -14.7364 -14.7265 -13.3535 -13.3340 -13.3164 -13.3117
   -12.6474 -12.6438 -12.6199 -12.6043 -12.1679 -12.1572 -12.0993 -12.0801
   -11.8900 -11.8876 -11.8209 -11.8177 -11.7537 -11.7454 -11.7345 -11.7315
   -11.3308 -11.3267 -11.2757 -11.2578 -10.3800 -10.3758 -10.3628 -10.3505
    -9.4775  -9.4590  -9.4561  -9.4331  -8.7491  -8.7395  -8.6922  -8.6742
    -8.4940  -8.4428  -8.4347  -8.3893  -8.2278  -8.2133  -8.1607  -8.1475
    -7.6621  -7.6226  -7.5433  -7.5207  -6.8369  -6.8337  -6.7725  -6.7454
    -6.4603  -6.4068  -6.3832  -6.3055  -6.1429  -6.1290  -6.1272  -6.1177
    -5.9429  -5.9123  -5.8925  -5.8804  -5.4467  -5.4270  -5.3510  -5.3330
    -5.3019  -5.2804  -5.1847  -5.1697  -4.9559  -4.9332  -4.8712  -4.8534
    -4.7875  -4.7814  -4.7363  -4.7307  -4.4578  -4.4408  -4.4390  -4.3534
    -4.3519  -4.2754  -4.2442  -4.2116  -4.1736  -4.0820  -4.0290  -3.9721
    -3.9494  -3.9070  -3.8743  -3.8325  -3.8037  -3.7809  -3.7414  -3.7049
    -3.5787  -3.5585  -3.5389  -3.5311  -3.4997  -3.4889  -3.4469  -3.4250
    -3.1256  -3.1162  -3.1101  -3.1027  -3.0494  -2.9890  -2.9839  -2.9752
    -2.9472  -2.9117  -2.8798  -2.8796  -2.8179  -2.8092  -2.7306  -2.7207
    -2.6542  -2.6361  -2.5740  -2.5360  -2.5233  -2.5123  -2.4720  -2.4491
    -2.3519  -2.3423  -2.3188  -2.3122  -2.2366  -2.2342  -2.1880  -2.1804
    -2.1584  -2.1314  -2.1137  -2.1053  -1.7308  -1.7118  -1.5904  -1.5802
    -1.5533  -1.4962  -1.4228  -1.3923  -1.2972  -1.2731  -1.2639  -1.2205
    -1.1945  -1.1846  -1.0915  -1.0011  -0.0933  -0.0762  -0.0486   0.0132
     0.0169   0.0886   0.1776   0.2369   0.2857   0.3060   0.3851   0.4092
     0.5528   0.5855   0.6501   0.6600   0.9285   0.9820   1.0072   1.0784
     1.7042   1.7275   1.8906   1.9204

          k = 0.0000 0.3928-0.5389 ( 26234 PWs)   bands (ev):

   -20.6518 -20.6518 -20.6474 -20.6474 -19.5825 -19.5825 -19.5800 -19.5800
   -17.7252 -17.7252 -17.7133 -17.7133 -14.8069 -14.8069 -14.7860 -14.7860
   -14.7469 -14.7469 -14.7342 -14.7342 -13.3520 -13.3520 -13.3084 -13.3084
   -12.6295 -12.6295 -12.6256 -12.6256 -12.1666 -12.1666 -12.0882 -12.0882
   -11.8553 -11.8553 -11.8531 -11.8530 -11.7428 -11.7428 -11.7379 -11.7379
   -11.3309 -11.3309 -11.2683 -11.2683 -10.3803 -10.3803 -10.3522 -10.3522
    -9.4683  -9.4683  -9.4416  -9.4416  -8.7295  -8.7295  -8.7056  -8.7056
    -8.4667  -8.4667  -8.4174  -8.4174  -8.2019  -8.2019  -8.1697  -8.1697
    -7.6552  -7.6552  -7.5185  -7.5185  -6.8650  -6.8650  -6.7355  -6.7355
    -6.4307  -6.4307  -6.3355  -6.3355  -6.1534  -6.1534  -6.1109  -6.1109
    -5.9264  -5.9264  -5.8866  -5.8866  -5.4011  -5.4011  -5.3641  -5.3641
    -5.2380  -5.2380  -5.2127  -5.2127  -4.9558  -4.9558  -4.8644  -4.8644
    -4.7681  -4.7681  -4.7238  -4.7238  -4.4730  -4.4730  -4.4277  -4.4277
    -4.3297  -4.3297  -4.2885  -4.2885  -4.1111  -4.1111  -3.9909  -3.9909
    -3.8846  -3.8846  -3.8256  -3.8256  -3.7519  -3.7519  -3.6940  -3.6940
    -3.6133  -3.6133  -3.5531  -3.5531  -3.4907  -3.4907  -3.4645  -3.4645
    -3.1391  -3.1391  -3.1152  -3.1152  -2.9748  -2.9748  -2.9653  -2.9653
    -2.9188  -2.9188  -2.8678  -2.8677  -2.7977  -2.7977  -2.7346  -2.7346
    -2.6586  -2.6586  -2.6134  -2.6134  -2.5433  -2.5433  -2.4410  -2.4410
    -2.3455  -2.3455  -2.2889  -2.2889  -2.2364  -2.2364  -2.1748  -2.1748
    -2.1573  -2.1573  -2.1078  -2.1078  -1.6545  -1.6545  -1.6146  -1.6146
    -1.5082  -1.5082  -1.4594  -1.4594  -1.3042  -1.3042  -1.2336  -1.2336
    -1.1871  -1.1871  -1.0371  -1.0371  -0.0924  -0.0924  -0.0400  -0.0400
     0.0614   0.0614   0.2397   0.2397   0.2849   0.2849   0.4151   0.4151
     0.5799   0.5799   0.6439   0.6439   0.9519   0.9519   1.0397   1.0397
     1.7142   1.7142   1.8940   1.8940

          k =-0.5000 0.0000-0.2433 ( 26244 PWs)   bands (ev):

   -20.6572 -20.6535 -20.6493 -20.6440 -19.5898 -19.5849 -19.5830 -19.5769
   -17.7289 -17.7284 -17.7175 -17.7171 -14.8160 -14.8075 -14.7991 -14.7979
   -14.7493 -14.7429 -14.7372 -14.7199 -13.3520 -13.3383 -13.3238 -13.3196
   -12.6540 -12.6502 -12.6382 -12.5975 -12.1833 -12.1546 -12.1127 -12.0690
   -11.8537 -11.8532 -11.8262 -11.8117 -11.7808 -11.7711 -11.7415 -11.7215
   -11.3302 -11.3298 -11.2821 -11.2523 -10.4213 -10.3864 -10.3490 -10.3299
    -9.4873  -9.4578  -9.4214  -9.4072  -8.7946  -8.7757  -8.6753  -8.6543
    -8.5274  -8.4477  -8.4176  -8.3748  -8.2607  -8.1736  -8.1703  -8.1571
    -7.6649  -7.5917  -7.5505  -7.5356  -6.8273  -6.8214  -6.8212  -6.7180
    -6.4807  -6.4253  -6.3873  -6.2692  -6.1803  -6.1542  -6.1289  -6.0929
    -5.9545  -5.9136  -5.9023  -5.8525  -5.4481  -5.3775  -5.3576  -5.3349
    -5.2593  -5.2576  -5.2102  -5.1849  -4.9806  -4.9571  -4.9049  -4.7903
    -4.7892  -4.7759  -4.7313  -4.6512  -4.6159  -4.4408  -4.4333  -4.3196
    -4.3026  -4.2482  -4.2320  -4.2064  -4.1613  -4.1112  -4.0608  -4.0514
    -3.9556  -3.9339  -3.8678  -3.7752  -3.7618  -3.7616  -3.7063  -3.7029
    -3.5761  -3.5760  -3.5658  -3.5296  -3.4788  -3.4612  -3.4465  -3.4339
    -3.1747  -3.1485  -3.1322  -3.1047  -3.0585  -3.0046  -2.9866  -2.9777
    -2.9719  -2.8671  -2.8443  -2.8371  -2.8274  -2.8002  -2.7542  -2.7448
    -2.6160  -2.6153  -2.5996  -2.5634  -2.5460  -2.4734  -2.4643  -2.4624
    -2.3430  -2.3363  -2.3056  -2.2731  -2.2577  -2.2336  -2.2129  -2.2032
    -2.1563  -2.1472  -2.1401  -2.1004  -1.7817  -1.6686  -1.6146  -1.5650
    -1.5613  -1.4970  -1.4682  -1.3578  -1.3002  -1.2720  -1.2311  -1.2049
    -1.1823  -1.1517  -1.1229  -0.9440  -0.0514  -0.0450  -0.0449   0.0060
     0.0122   0.1392   0.1592   0.2023   0.2055   0.3045   0.3848   0.3887
     0.5628   0.5780   0.5843   0.6738   0.8360   0.8739   1.0453   1.1427
     1.7121   1.8165   1.9145   2.0102

          k =-0.5000 0.0000-0.7823 ( 26276 PWs)   bands (ev):

   -20.6578 -20.6578 -20.6491 -20.6491 -19.5881 -19.5880 -19.5817 -19.5817
   -17.7302 -17.7302 -17.7198 -17.7198 -14.8116 -14.8116 -14.8022 -14.8022
   -14.7463 -14.7463 -14.7283 -14.7283 -13.3547 -13.3547 -13.3129 -13.3129
   -12.6501 -12.6501 -12.6194 -12.6194 -12.1718 -12.1718 -12.0891 -12.0891
   -11.8402 -11.8401 -11.8345 -11.8345 -11.7575 -11.7575 -11.7449 -11.7449
   -11.3320 -11.3320 -11.2717 -11.2717 -10.3909 -10.3909 -10.3526 -10.3526
    -9.4566  -9.4566  -9.4349  -9.4349  -8.7294  -8.7294  -8.7123  -8.7123
    -8.4881  -8.4881  -8.3923  -8.3923  -8.2287  -8.2287  -8.1614  -8.1614
    -7.6653  -7.6653  -7.5134  -7.5134  -6.8654  -6.8654  -6.7305  -6.7305
    -6.4598  -6.4598  -6.3176  -6.3176  -6.1557  -6.1557  -6.1107  -6.1107
    -5.9303  -5.9303  -5.8791  -5.8791  -5.3917  -5.3917  -5.3422  -5.3422
    -5.2560  -5.2560  -5.2071  -5.2071  -5.0164  -5.0164  -4.8753  -4.8753
    -4.8046  -4.8046  -4.6869  -4.6869  -4.5189  -4.5189  -4.3267  -4.3267
    -4.3096  -4.3096  -4.2529  -4.2529  -4.1303  -4.1303  -3.9837  -3.9837
    -3.9064  -3.9064  -3.8459  -3.8459  -3.7782  -3.7782  -3.7177  -3.7177
    -3.6589  -3.6589  -3.5284  -3.5284  -3.4894  -3.4894  -3.4270  -3.4270
    -3.1622  -3.1622  -3.1199  -3.1199  -3.0116  -3.0116  -2.9576  -2.9576
    -2.9013  -2.9013  -2.8384  -2.8384  -2.7968  -2.7968  -2.7816  -2.7816
    -2.6295  -2.6295  -2.5827  -2.5827  -2.4957  -2.4957  -2.4451  -2.4451
    -2.3579  -2.3579  -2.3231  -2.3231  -2.2597  -2.2597  -2.2125  -2.2125
    -2.1352  -2.1352  -2.1114  -2.1114  -1.6764  -1.6763  -1.6103  -1.6103
    -1.5212  -1.5212  -1.4729  -1.4729  -1.3006  -1.3006  -1.2228  -1.2228
    -1.1669  -1.1669  -1.0137  -1.0137  -0.0669  -0.0669  -0.0383  -0.0383
     0.1000   0.1000   0.1919   0.1919   0.2823   0.2823   0.3689   0.3689
     0.5544   0.5544   0.6205   0.6205   0.8475   0.8476   1.0859   1.0859
     1.7545   1.7545   1.9649   1.9649

          k =-0.5000 0.3928-0.2433 ( 26248 PWs)   bands (ev):

   -20.6544 -20.6523 -20.6492 -20.6445 -19.5858 -19.5828 -19.5811 -19.5789
   -17.7299 -17.7282 -17.7203 -17.7133 -14.8111 -14.8086 -14.7977 -14.7977
   -14.7487 -14.7416 -14.7374 -14.7236 -13.3496 -13.3423 -13.3219 -13.3178
   -12.6505 -12.6411 -12.6302 -12.6066 -12.1761 -12.1612 -12.1008 -12.0814
   -11.8567 -11.8543 -11.8181 -11.8130 -11.7749 -11.7698 -11.7373 -11.7266
   -11.3297 -11.3290 -11.2779 -11.2594 -10.4144 -10.3966 -10.3473 -10.3307
    -9.4796  -9.4664  -9.4154  -9.4109  -8.7874  -8.7762  -8.6686  -8.6572
    -8.5062  -8.4509  -8.4245  -8.3855  -8.2474  -8.2087  -8.1689  -8.1534
    -7.6438  -7.6109  -7.5330  -7.5276  -6.8388  -6.8331  -6.7854  -6.7390
    -6.4526  -6.4088  -6.3850  -6.3076  -6.1660  -6.1394  -6.1329  -6.1039
    -5.9422  -5.9161  -5.9010  -5.8700  -5.4297  -5.3895  -5.3769  -5.3582
    -5.2550  -5.2544  -5.1973  -5.1868  -4.9697  -4.9247  -4.8867  -4.8250
    -4.8050  -4.7556  -4.7409  -4.6815  -4.5486  -4.4424  -4.4024  -4.3857
    -4.3761  -4.3267  -4.2330  -4.2005  -4.1454  -4.1313  -4.0849  -3.9996
    -3.8958  -3.8896  -3.8591  -3.8173  -3.7533  -3.7150  -3.7020  -3.7007
    -3.5866  -3.5858  -3.5787  -3.5536  -3.4981  -3.4786  -3.4376  -3.4243
    -3.1557  -3.1406  -3.1131  -3.0883  -3.0540  -3.0097  -2.9874  -2.9859
    -2.9481  -2.8926  -2.8624  -2.8600  -2.8001  -2.7906  -2.7692  -2.7460
    -2.6332  -2.6256  -2.5824  -2.5738  -2.5170  -2.4959  -2.4894  -2.4565
    -2.3514  -2.3494  -2.3122  -2.2893  -2.2347  -2.2111  -2.2084  -2.1947
    -2.1548  -2.1432  -2.1367  -2.1003  -1.7358  -1.6545  -1.6169  -1.5955
    -1.5532  -1.5472  -1.4206  -1.3572  -1.2703  -1.2635  -1.2400  -1.2119
    -1.1936  -1.1762  -1.0707  -0.9835  -0.0390  -0.0363  -0.0301   0.0027
     0.0227   0.0755   0.1591   0.1791   0.2368   0.2844   0.3796   0.3823
     0.5607   0.5656   0.6199   0.6593   0.8806   0.9277   0.9747   1.0562
     1.7622   1.8080   1.9463   1.9937

          k =-0.5000 0.3928-0.7823 ( 26274 PWs)   bands (ev):

   -20.6557 -20.6557 -20.6523 -20.6523 -19.5859 -19.5859 -19.5847 -19.5847
   -17.7264 -17.7264 -17.7185 -17.7185 -14.8082 -14.8082 -14.8001 -14.8001
   -14.7422 -14.7422 -14.7335 -14.7335 -13.3544 -13.3544 -13.3122 -13.3122
   -12.6424 -12.6424 -12.6254 -12.6254 -12.1703 -12.1703 -12.0928 -12.0928
   -11.8429 -11.8429 -11.8267 -11.8267 -11.7548 -11.7548 -11.7482 -11.7482
   -11.3306 -11.3305 -11.2718 -11.2718 -10.3867 -10.3867 -10.3556 -10.3556
    -9.4535  -9.4535  -9.4417  -9.4417  -8.7266  -8.7266  -8.7163  -8.7163
    -8.4664  -8.4664  -8.4182  -8.4181  -8.2276  -8.2276  -8.1639  -8.1639
    -7.6588  -7.6588  -7.5096  -7.5096  -6.8604  -6.8604  -6.7397  -6.7397
    -6.4309  -6.4309  -6.3409  -6.3409  -6.1459  -6.1459  -6.1217  -6.1217
    -5.9239  -5.9239  -5.8940  -5.8940  -5.4154  -5.4154  -5.3368  -5.3368
    -5.2447  -5.2447  -5.2132  -5.2132  -4.9675  -4.9675  -4.8807  -4.8807
    -4.7793  -4.7793  -4.7307  -4.7307  -4.4656  -4.4656  -4.3661  -4.3661
    -4.3048  -4.3048  -4.2865  -4.2865  -4.1631  -4.1631  -4.0049  -4.0049
    -3.8888  -3.8888  -3.8351  -3.8351  -3.7815  -3.7815  -3.7213  -3.7213
    -3.6347  -3.6347  -3.5585  -3.5585  -3.4758  -3.4758  -3.4158  -3.4158
    -3.1252  -3.1252  -3.0969  -3.0969  -3.0109  -3.0109  -2.9735  -2.9735
    -2.8951  -2.8951  -2.8586  -2.8586  -2.8032  -2.8032  -2.7813  -2.7813
    -2.6265  -2.6265  -2.6030  -2.6030  -2.4938  -2.4938  -2.4618  -2.4618
    -2.3762  -2.3762  -2.3258  -2.3258  -2.2448  -2.2448  -2.2022  -2.2022
    -2.1144  -2.1144  -2.1073  -2.1073  -1.6810  -1.6809  -1.6121  -1.6121
    -1.4952  -1.4951  -1.4613  -1.4613  -1.2935  -1.2935  -1.2237  -1.2237
    -1.1970  -1.1970  -1.0157  -1.0157  -0.0661  -0.0661  -0.0335  -0.0335
     0.0436   0.0436   0.2278   0.2278   0.2711   0.2711   0.3586   0.3586
     0.5702   0.5702   0.6230   0.6230   0.8983   0.8983   1.0183   1.0184
     1.7772   1.7772   1.9661   1.9661

!    total energy              =   -1154.93968383 Ry
     Harris-Foulkes estimate   =   -1154.93968385 Ry
     estimated scf accuracy    <       0.00000003 Ry

     The total energy is the sum of the following terms:

     one-electron contribution =    -817.76423162 Ry
     hartree contribution      =     547.12877089 Ry
     xc contribution           =    -353.86901702 Ry
     ewald contribution        =    -530.43520607 Ry

     convergence has been achieved in  12 iterations

     Forces acting on atoms (Ry/au):

     atom    1 type  1   force =    -0.00089259   -0.00202377   -0.00105332
     atom    2 type  1   force =     0.00089259    0.00202377    0.00105332
     atom    3 type  1   force =     0.00089259   -0.00202377    0.00105332
     atom    4 type  1   force =    -0.00089259    0.00202377   -0.00105332
     atom    5 type  1   force =    -0.00013924    0.00027356   -0.00076594
     atom    6 type  1   force =     0.00013924   -0.00027356    0.00076594
     atom    7 type  1   force =     0.00013924    0.00027356    0.00076594
     atom    8 type  1   force =    -0.00013924   -0.00027356   -0.00076594
     atom    9 type  1   force =    -0.00185037   -0.00062480    0.00099816
     atom   10 type  1   force =     0.00185037    0.00062480   -0.00099816
     atom   11 type  1   force =     0.00185037   -0.00062480   -0.00099816
     atom   12 type  1   force =    -0.00185037    0.00062480    0.00099816
     atom   13 type  1   force =     0.00138034   -0.00073163   -0.00484142
     atom   14 type  1   force =    -0.00138034    0.00073163    0.00484142
     atom   15 type  1   force =    -0.00138034   -0.00073163    0.00484142
     atom   16 type  1   force =     0.00138034    0.00073163   -0.00484142
     atom   17 type  1   force =     0.00181590    0.00053428    0.00157450
     atom   18 type  1   force =    -0.00181590   -0.00053428   -0.00157450
     atom   19 type  1   force =    -0.00181590    0.00053428   -0.00157450
     atom   20 type  1   force =     0.00181590   -0.00053428    0.00157450
     atom   21 type  1   force =    -0.00275729    0.00078297    0.00060246
     atom   22 type  1   force =     0.00275729   -0.00078297   -0.00060246
     atom   23 type  1   force =     0.00275729    0.00078297   -0.00060246
     atom   24 type  1   force =    -0.00275729   -0.00078297    0.00060246
     atom   25 type  1   force =     0.00138204    0.00245708    0.00190699
     atom   26 type  1   force =    -0.00138204   -0.00245708   -0.00190699
     atom   27 type  1   force =    -0.00138204    0.00245708   -0.00190699
     atom   28 type  1   force =     0.00138204   -0.00245708    0.00190699
     atom   29 type  1   force =     0.00203194   -0.00033849   -0.00272747
     atom   30 type  1   force =    -0.00203194    0.00033849    0.00272747
     atom   31 type  1   force =    -0.00203194   -0.00033849    0.00272747
     atom   32 type  1   force =     0.00203194    0.00033849   -0.00272747
     atom   33 type  1   force =     0.00231217    0.00067386    0.00076485
     atom   34 type  1   force =    -0.00231217   -0.00067386   -0.00076485
     atom   35 type  1   force =    -0.00231217    0.00067386   -0.00076485
     atom   36 type  1   force =     0.00231217   -0.00067386    0.00076485
     atom   37 type  1   force =     0.00190734    0.00060427    0.00010579
     atom   38 type  1   force =    -0.00190734   -0.00060427   -0.00010579
     atom   39 type  1   force =    -0.00190734    0.00060427   -0.00010579
     atom   40 type  1   force =     0.00190734   -0.00060427    0.00010579
     atom   41 type  1   force =     0.00034412   -0.00046923   -0.00040251
     atom   42 type  1   force =    -0.00034412    0.00046923    0.00040251
     atom   43 type  1   force =    -0.00034412   -0.00046923    0.00040251
     atom   44 type  1   force =     0.00034412    0.00046923   -0.00040251
     atom   45 type  1   force =    -0.00067577   -0.00173167   -0.00091310
     atom   46 type  1   force =     0.00067577    0.00173167    0.00091310
     atom   47 type  1   force =     0.00067577   -0.00173167    0.00091310
     atom   48 type  1   force =    -0.00067577    0.00173167   -0.00091310
     atom   49 type  1   force =     0.00158411   -0.00057783    0.00146185
     atom   50 type  1   force =    -0.00158411    0.00057783   -0.00146185
     atom   51 type  1   force =    -0.00158411   -0.00057783   -0.00146185
     atom   52 type  1   force =     0.00158411    0.00057783    0.00146185
     atom   53 type  1   force =     0.00158905   -0.00010378    0.00038616
     atom   54 type  1   force =    -0.00158905    0.00010378   -0.00038616
     atom   55 type  1   force =    -0.00158905   -0.00010378   -0.00038616
     atom   56 type  1   force =     0.00158905    0.00010378    0.00038616
     atom   57 type  1   force =    -0.00043298    0.00094547    0.00038378
     atom   58 type  1   force =     0.00043298   -0.00094547   -0.00038378
     atom   59 type  1   force =     0.00043298    0.00094547   -0.00038378
     atom   60 type  1   force =    -0.00043298   -0.00094547    0.00038378
     atom   61 type  1   force =     0.00047657    0.00092515    0.00082926
     atom   62 type  1   force =    -0.00047657   -0.00092515   -0.00082926
     atom   63 type  1   force =    -0.00047657    0.00092515   -0.00082926
     atom   64 type  1   force =     0.00047657   -0.00092515    0.00082926
     atom   65 type  1   force =    -0.00055327    0.00043607    0.00134300
     atom   66 type  1   force =     0.00055327   -0.00043607   -0.00134300
     atom   67 type  1   force =     0.00055327    0.00043607   -0.00134300
     atom   68 type  1   force =    -0.00055327   -0.00043607    0.00134300
     atom   69 type  2   force =    -0.00155386    0.00118427    0.00279324
     atom   70 type  2   force =     0.00155386   -0.00118427   -0.00279324
     atom   71 type  2   force =     0.00155386    0.00118427   -0.00279324
     atom   72 type  2   force =    -0.00155386   -0.00118427    0.00279324
     atom   73 type  2   force =    -0.00080792    0.00037384    0.00173333
     atom   74 type  2   force =     0.00080792   -0.00037384   -0.00173333
     atom   75 type  2   force =     0.00080792    0.00037384   -0.00173333
     atom   76 type  2   force =    -0.00080792   -0.00037384    0.00173333
     atom   77 type  2   force =    -0.00136743   -0.00080704   -0.00100746
     atom   78 type  2   force =     0.00136743    0.00080704    0.00100746
     atom   79 type  2   force =     0.00136743   -0.00080704    0.00100746
     atom   80 type  2   force =    -0.00136743    0.00080704   -0.00100746
     atom   81 type  2   force =     0.00020944   -0.00023405   -0.00119474
     atom   82 type  2   force =    -0.00020944    0.00023405    0.00119474
     atom   83 type  2   force =    -0.00020944   -0.00023405    0.00119474
     atom   84 type  2   force =     0.00020944    0.00023405   -0.00119474
     atom   85 type  2   force =    -0.00261196   -0.00149860   -0.00148046
     atom   86 type  2   force =     0.00261196    0.00149860    0.00148046
     atom   87 type  2   force =     0.00261196   -0.00149860    0.00148046
     atom   88 type  2   force =    -0.00261196    0.00149860   -0.00148046
     atom   89 type  2   force =    -0.00009022    0.00348223    0.00291695
     atom   90 type  2   force =     0.00009022   -0.00348223   -0.00291695
     atom   91 type  2   force =     0.00009022    0.00348223   -0.00291695
     atom   92 type  2   force =    -0.00009022   -0.00348223    0.00291695
     atom   93 type  2   force =    -0.00053416   -0.00201949   -0.00174043
     atom   94 type  2   force =     0.00053416    0.00201949    0.00174043
     atom   95 type  2   force =     0.00053416   -0.00201949    0.00174043
     atom   96 type  2   force =    -0.00053416    0.00201949   -0.00174043
     atom   97 type  2   force =     0.00173695    0.00041868   -0.00012514
     atom   98 type  2   force =    -0.00173695   -0.00041868    0.00012514
     atom   99 type  2   force =    -0.00173695    0.00041868    0.00012514
     atom  100 type  2   force =     0.00173695   -0.00041868   -0.00012514
     atom  101 type  2   force =    -0.00034444   -0.00021066   -0.00029456
     atom  102 type  2   force =     0.00034444    0.00021066    0.00029456
     atom  103 type  2   force =     0.00034444   -0.00021066    0.00029456
     atom  104 type  2   force =    -0.00034444    0.00021066   -0.00029456
     atom  105 type  2   force =     0.00120278    0.00135136    0.00028047
     atom  106 type  2   force =    -0.00120278   -0.00135136   -0.00028047
     atom  107 type  2   force =    -0.00120278    0.00135136   -0.00028047
     atom  108 type  2   force =     0.00120278   -0.00135136    0.00028047
     atom  109 type  2   force =     0.00048681   -0.00036827    0.00115304
     atom  110 type  2   force =    -0.00048681    0.00036827   -0.00115304
     atom  111 type  2   force =    -0.00048681   -0.00036827   -0.00115304
     atom  112 type  2   force =     0.00048681    0.00036827    0.00115304
     atom  113 type  2   force =     0.00047563    0.00094405    0.00059443
     atom  114 type  2   force =    -0.00047563   -0.00094405   -0.00059443
     atom  115 type  2   force =    -0.00047563    0.00094405   -0.00059443
     atom  116 type  2   force =     0.00047563   -0.00094405    0.00059443
     atom  117 type  2   force =    -0.00003974    0.00108028   -0.00056409
     atom  118 type  2   force =     0.00003974   -0.00108028    0.00056409
     atom  119 type  2   force =     0.00003974    0.00108028    0.00056409
     atom  120 type  2   force =    -0.00003974   -0.00108028   -0.00056409
     atom  121 type  2   force =     0.00065709   -0.00005400   -0.00141511
     atom  122 type  2   force =    -0.00065709    0.00005400    0.00141511
     atom  123 type  2   force =    -0.00065709   -0.00005400    0.00141511
     atom  124 type  2   force =     0.00065709    0.00005400   -0.00141511
     atom  125 type  2   force =    -0.00046894   -0.00161129   -0.00130919
     atom  126 type  2   force =     0.00046894    0.00161129    0.00130919
     atom  127 type  2   force =     0.00046894   -0.00161129    0.00130919
     atom  128 type  2   force =    -0.00046894    0.00161129   -0.00130919
     atom  129 type  2   force =     0.00010154   -0.00148872   -0.00111714
     atom  130 type  2   force =    -0.00010154    0.00148872    0.00111714
     atom  131 type  2   force =    -0.00010154   -0.00148872    0.00111714
     atom  132 type  2   force =     0.00010154    0.00148872   -0.00111714
     atom  133 type  2   force =    -0.00161781    0.00030382    0.00170945
     atom  134 type  2   force =     0.00161781   -0.00030382   -0.00170945
     atom  135 type  2   force =     0.00161781    0.00030382   -0.00170945
     atom  136 type  2   force =    -0.00161781   -0.00030382    0.00170945
     atom  137 type  4   force =    -0.00066355    0.00019324   -0.00330719
     atom  138 type  4   force =     0.00066355   -0.00019324    0.00330719
     atom  139 type  4   force =     0.00066355    0.00019324    0.00330719
     atom  140 type  4   force =    -0.00066355   -0.00019324   -0.00330719
     atom  141 type  3   force =    -0.00221402    0.00113346   -0.00006959
     atom  142 type  3   force =     0.00221402   -0.00113346    0.00006959
     atom  143 type  3   force =     0.00221402    0.00113346    0.00006959
     atom  144 type  3   force =    -0.00221402   -0.00113346   -0.00006959
     atom  145 type  3   force =     0.00111236   -0.00024184   -0.00284751
     atom  146 type  3   force =    -0.00111236    0.00024184    0.00284751
     atom  147 type  3   force =    -0.00111236   -0.00024184    0.00284751
     atom  148 type  3   force =     0.00111236    0.00024184   -0.00284751

     Total force =     0.029513     Total SCF correction =     0.000350

     BFGS Geometry Optimization

     number of scf cycles    =   1
     number of bfgs steps    =   0

     energy   new            =   -1154.9396838293 Ry

     new trust radius        =       0.0050872339 bohr
     new conv_thr            =       0.0000001000 Ry


ATOMIC_POSITIONS (angstrom)
C        4.852693022   3.452267840   4.570887345
C        1.795285978   6.832731160   6.673311655
C        4.531295978   8.594768840   1.051212655
C        2.116683022   1.690232160  10.192987345
C        3.609894561   2.822849075   4.286939961
C        3.038085439   7.462150925   6.957259039
C        5.774095439   7.965349075   1.335159039
C        0.873884561   2.319650925   9.909039961
C        3.451334660   2.021012513   3.144709161
C        3.196644340   8.263987487   8.099489839
C        5.932655340   7.163512513   2.477389839
C        0.715324660   3.121487487   8.766809161
C        4.535992434   1.834153900   2.249144533
C        2.111987566   8.450846100   8.995055467
C        4.847997566   6.976653900   3.372955467
C        1.799981434   3.308346100   7.871243533
C        5.755716567   2.478378137   2.501752124
C        0.892263433   7.806621863   8.742447876
C        3.628273433   7.620878137   3.120347876
C        3.019705567   2.664121863   8.123852124
C        5.958894297   3.297815474   3.653345058
C        0.689085703   6.987184526   7.590853942
C        3.425095703   8.440315474   1.968754942
C        3.222883297   1.844684526   9.275445058
C        7.256005753   3.981021811   3.910974560
C       -0.608025753   6.303978189   7.333225440
C        2.127984247   9.123521811   1.711125440
C        4.519995753   1.161478189   9.533074560
C        8.374479502   3.789660083   3.003948595
C       -1.726500502   6.495339917   8.240251405
C        1.009509498   8.932160083   2.618151405
C        5.638469502   1.352839917   8.626047595
C        9.576564904   4.461477055   3.184202445
C       -2.928585904   5.823522945   8.059997555
C       -0.192575904   9.603976055   2.437897555
C        6.840554904   0.681022945   8.806302445
C       10.791802779   4.305433229   2.424639596
C       -4.143822779   5.979566771   8.819560404
C       -1.407812779   9.447932229   3.197460404
C        8.055792779   0.837066771   8.046738596
C       10.962335349   3.352774720   1.369701349
C       -4.314355349   6.932225280   9.874498651
C       -1.578345349   8.495274720   4.252398651
C        8.226325349   1.789725280   6.991801349
C        0.057537893   3.196385631   0.703399638
C        6.590442107   7.088614369  10.540799362
C        9.326452107   8.338885631   4.918699362
C       -2.678472107   1.946114369   6.325499638
C        1.192513635   4.021074489   1.039833341
C        5.455466365   6.263925511  10.204365659
C        8.191476365   9.163574489   4.582266659
C       -1.543496365   1.121425511   6.661933341
C        1.038028528   4.973478402   2.105912814
C        5.609950472   5.311521598   9.138287186
C        8.345961472  10.115978402   3.516187186
C       -1.697981472   0.169021598   7.728011814
C       -0.187327765   5.096801786   2.766604839
C        6.835307765   5.188198214   8.477594161
C        9.571317765  10.239301786   2.855494161
C       -2.923338765   0.045698214   8.388704839
C       -2.966018653   2.909779470  10.513221101
C        9.613998653   7.375221530   0.730977899
C        6.877988653   8.052278470   6.353077899
C       -0.230008653   2.232720530   4.891121101
C        3.499891858   4.826619981   0.647990106
C        3.148088142   5.458380019  10.596209894
C        5.884098142   9.969119981   4.974109894
C        0.763880858   0.315880019   6.270089106
H        2.762402641   2.996758575   4.993880757
H        3.885576359   7.288240425   6.250319243
H        6.621587359   8.139258575   0.628219243
H        0.026392641   2.145740425  10.615979757
H        2.468506659   1.534700817   2.924703698
H        4.179472341   8.750299183   8.319495302
H        6.915482341   6.677200817   2.697396302
H       -0.267503341   3.607799183   8.546803698
H        4.427261183   1.188018824   1.347715060
H        2.220717817   9.096981176   9.896483940
H        4.956728817   6.330518824   4.274384940
H        1.691251183   3.954481176   6.969815060
H        6.587569763   2.325362891   1.774303046
H        0.060409237   7.959636109   9.469896954
H        2.796419237   7.467862891   3.847796954
H        3.851559763   2.817136109   7.396403046
H        8.279149537   3.066000001   2.161816426
H       -1.631170537   7.218999999   9.082383574
H        1.104839463   8.208500001   3.460283574
H        5.543139537   2.076499999   7.783915426
H        9.621815769   5.186814044   4.038154057
H       -2.973835769   5.098185956   7.206044943
H       -0.237825769  10.329314044   1.583944943
H        6.885804769  -0.044314044   9.660254057
H       10.104494010   2.702063581   1.069377909
H       -3.456515010   7.582936419  10.174822091
H       -0.720505010   7.844563581   4.552722091
H        7.368484010   2.440436419   6.691476909
H        0.127033779   2.432484271  -0.104851302
H        6.520946221   7.852515729  11.349050302
H        9.256956221   7.574983271   5.726951302
H       -2.608976221   2.710015729   5.517248698
H        1.896759743   5.610229376   2.422130919
H        4.751219257   4.674770624   8.822069081
H        7.487230257   0.467729376   3.199969081
H       -0.839250257   9.817270624   8.044229919
H       -0.294656281   5.832012670   3.600952080
H        6.942636281   4.452987330   7.643247920
H        9.678646281   0.689512670   2.021147920
H       -3.030666281   9.595487330   9.223052080
H       -3.154005882   1.862727689  10.884785820
H        9.801985882   8.422272311   0.359413180
H        7.065975882   7.005227689   5.981513180
H       -0.417995882   3.279772311   5.262685820
H       -1.935904118   2.951202362  10.075609541
H        8.583883118   7.333797638   1.168590459
H        5.847873118   8.093702362   6.790690459
H        0.800106882   2.191297638   4.453509541
H       -3.701000922   3.121395809   9.685202122
H       10.348980922   7.163603191   1.558996878
H        7.612970922   8.263895809   7.181096878
H       -0.964990922   2.021103191   4.063102122
H        3.168454750   5.897410016   0.526302217
H        3.479525250   4.387589984  10.717896783
H        6.215535250   0.754910016   5.095797783
H        0.432444750   9.530089984   6.148402217
H        4.348625745   4.636305287  -0.061124217
H        2.299353255   5.648694713  11.305324217
H        5.035363255   9.778805287   5.683224217
H        1.612615745   0.506194713   5.560975783
H        3.886642446   4.708342338   1.699957669
H        2.761337554   5.576656662   9.544242331
H        5.497347554   9.850843338   3.922142331
H        1.150632446   0.434157662   7.322056669
H        5.986159336   4.579222099   5.630873536
H        0.661820664   5.705777901   5.613326464
H       -2.074189336   9.721722099  11.235425464
H        8.722169336   0.563277901   0.008773536
N        2.394728811   3.894754950   0.357934191
N        4.253251189   6.390245050  10.886264809
N        6.989261189   9.037254950   5.264165809
N       -0.341281189   1.247745050   5.980034191
O        4.943905054   4.200683075   5.738736266
O        1.704074946   6.084316925   5.505462734
O       -1.031936054   9.343183075  11.127562734
O        7.679915054   0.941816925   0.116636266
O        7.403747565   4.766160420   4.983694432
O       -0.755768565   5.518839580   6.260504568
O        1.980241435   9.908660420   0.638404568
O        4.667737565   0.376339580  10.605794432



     Writing output data file naphtha111.save
     charge density from previous step

     total cpu time spent up to now is     1679.0 secs

     Self-consistent Calculation

     iteration #  1     ecut=    30.00 Ry     beta=0.70
     Davidson diagonalization with overlap
     ethr =  1.00E-06,  avg # of iterations =  5.0

     total cpu time spent up to now is     1864.7 secs

     total energy              =   -1154.93844087 Ry
     Harris-Foulkes estimate   =   -1154.94222617 Ry
     estimated scf accuracy    <       0.00524334 Ry

     iteration #  2     ecut=    30.00 Ry     beta=0.70
     Davidson diagonalization with overlap
     ethr =  1.29E-06,  avg # of iterations =  4.0

     total cpu time spent up to now is     2002.4 secs

     total energy              =   -1154.93921893 Ry
     Harris-Foulkes estimate   =   -1154.94096049 Ry
     estimated scf accuracy    <       0.00303672 Ry

     iteration #  3     ecut=    30.00 Ry     beta=0.70
     Davidson diagonalization with overlap
     ethr =  7.44E-07,  avg # of iterations =  4.6

     total cpu time spent up to now is     2135.4 secs

     total energy              =   -1154.94000126 Ry
     Harris-Foulkes estimate   =   -1154.94035489 Ry
     estimated scf accuracy    <       0.00080585 Ry

     iteration #  4     ecut=    30.00 Ry     beta=0.70
     Davidson diagonalization with overlap
     ethr =  1.98E-07,  avg # of iterations =  5.0

     total cpu time spent up to now is     2262.0 secs

     total energy              =   -1154.94015543 Ry
     Harris-Foulkes estimate   =   -1154.94018856 Ry
     estimated scf accuracy    <       0.00007138 Ry

     iteration #  5     ecut=    30.00 Ry     beta=0.70
     Davidson diagonalization with overlap
     ethr =  1.75E-08,  avg # of iterations =  5.0

     total cpu time spent up to now is     2402.8 secs

     total energy              =   -1154.94017407 Ry
     Harris-Foulkes estimate   =   -1154.94017762 Ry
     estimated scf accuracy    <       0.00000868 Ry

     iteration #  6     ecut=    30.00 Ry     beta=0.70
     Davidson diagonalization with overlap
     ethr =  2.13E-09,  avg # of iterations =  5.0

     total cpu time spent up to now is     2529.1 secs

     total energy              =   -1154.94017594 Ry
     Harris-Foulkes estimate   =   -1154.94017626 Ry
     estimated scf accuracy    <       0.00000082 Ry

     iteration #  7     ecut=    30.00 Ry     beta=0.70
     Davidson diagonalization with overlap
     ethr =  2.02E-10,  avg # of iterations =  4.6

     total cpu time spent up to now is     2663.1 secs

     total energy              =   -1154.94017613 Ry
     Harris-Foulkes estimate   =   -1154.94017620 Ry
     estimated scf accuracy    <       0.00000016 Ry

     iteration #  8     ecut=    30.00 Ry     beta=0.70
     Davidson diagonalization with overlap
     ethr =  3.88E-11,  avg # of iterations =  4.0

     total cpu time spent up to now is     2788.7 secs

     End of self-consistent calculation

          k = 0.0000 0.0000 0.0000 ( 26273 PWs)   bands (ev):

   -20.6509 -20.6463 -20.6438 -20.6398 -19.6190 -19.6171 -19.6150 -19.6129
   -17.7291 -17.7263 -17.7193 -17.7154 -14.8149 -14.7962 -14.7935 -14.7740
   -14.7533 -14.7458 -14.7307 -14.7214 -13.3561 -13.3171 -13.3138 -13.3070
   -12.6418 -12.6341 -12.6255 -12.5895 -12.1817 -12.1514 -12.1086 -12.0706
   -11.8888 -11.8882 -11.8252 -11.8209 -11.7525 -11.7377 -11.7348 -11.7298
   -11.3344 -11.3281 -11.2849 -11.2511 -10.3776 -10.3694 -10.3647 -10.3397
    -9.4794  -9.4699  -9.4465  -9.4162  -8.7508  -8.7289  -8.6930  -8.6597
    -8.5180  -8.4541  -8.4124  -8.3636  -8.2392  -8.1909  -8.1839  -8.1510
    -7.6798  -7.5787  -7.5778  -7.5168  -6.8303  -6.8172  -6.7949  -6.7324
    -6.4785  -6.4272  -6.3744  -6.2703  -6.1540  -6.1405  -6.1328  -6.1178
    -5.9463  -5.8975  -5.8937  -5.8693  -5.4667  -5.4221  -5.3728  -5.3293
    -5.3113  -5.2597  -5.1878  -5.1615  -4.9718  -4.9322  -4.8936  -4.8366
    -4.7984  -4.7554  -4.7072  -4.6788  -4.5184  -4.4928  -4.4222  -4.3458
    -4.3362  -4.2972  -4.2083  -4.1999  -4.1935  -4.0997  -4.0723  -4.0350
    -3.9708  -3.8703  -3.8111  -3.7916  -3.7831  -3.7822  -3.7374  -3.7320
    -3.6130  -3.5371  -3.5159  -3.5042  -3.4973  -3.4737  -3.4618  -3.4383
    -3.1594  -3.1462  -3.1376  -3.1117  -3.0822  -2.9932  -2.9854  -2.9755
    -2.9417  -2.8777  -2.8611  -2.8530  -2.7965  -2.7708  -2.7571  -2.7496
    -2.6532  -2.6057  -2.6049  -2.5232  -2.5135  -2.4888  -2.4840  -2.4404
    -2.3645  -2.3498  -2.3276  -2.3160  -2.2372  -2.2299  -2.2186  -2.2118
    -2.2077  -2.1260  -2.1127  -2.1059  -1.7281  -1.6958  -1.6553  -1.6007
    -1.5401  -1.4482  -1.4442  -1.4317  -1.3084  -1.2835  -1.2529  -1.1885
    -1.1815  -1.1540  -1.1500  -0.9615  -0.1144  -0.0714  -0.0706  -0.0130
     0.0717   0.1249   0.1526   0.2326   0.2718   0.3169   0.3895   0.4225
     0.5276   0.6103   0.6218   0.6413   0.9038   0.9321   1.0547   1.1343
     1.6879   1.7356   1.8823   1.9305

          k = 0.0000 0.0000-0.5389 ( 26180 PWs)   bands (ev):

   -20.6409 -20.6409 -20.6381 -20.6381 -19.6108 -19.6108 -19.6065 -19.6065
   -17.7218 -17.7218 -17.7137 -17.7137 -14.8049 -14.8049 -14.7781 -14.7781
   -14.7467 -14.7467 -14.7208 -14.7208 -13.3439 -13.3439 -13.2941 -13.2941
   -12.6241 -12.6241 -12.6153 -12.6153 -12.1654 -12.1654 -12.0838 -12.0838
   -11.8536 -11.8536 -11.8493 -11.8493 -11.7404 -11.7404 -11.7326 -11.7325
   -11.3290 -11.3290 -11.2645 -11.2645 -10.3734 -10.3734 -10.3428 -10.3428
    -9.4751  -9.4751  -9.4219  -9.4219  -8.7241  -8.7241  -8.6962  -8.6962
    -8.4839  -8.4839  -8.3880  -8.3880  -8.2076  -8.2076  -8.1648  -8.1648
    -7.6563  -7.6563  -7.5132  -7.5132  -6.8524  -6.8524  -6.7339  -6.7339
    -6.4504  -6.4504  -6.3077  -6.3077  -6.1492  -6.1492  -6.1156  -6.1156
    -5.9275  -5.9275  -5.8698  -5.8698  -5.4086  -5.4086  -5.3494  -5.3494
    -5.2370  -5.2370  -5.2045  -5.2045  -4.9867  -4.9867  -4.8178  -4.8178
    -4.7713  -4.7713  -4.7112  -4.7112  -4.4869  -4.4869  -4.3828  -4.3828
    -4.3366  -4.3366  -4.2142  -4.2142  -4.1639  -4.1639  -4.0206  -4.0206
    -3.9249  -3.9249  -3.8280  -3.8280  -3.7375  -3.7375  -3.6980  -3.6980
    -3.6296  -3.6296  -3.4977  -3.4977  -3.4866  -3.4866  -3.4068  -3.4068
    -3.1735  -3.1735  -3.1286  -3.1286  -2.9855  -2.9855  -2.9709  -2.9709
    -2.9144  -2.9144  -2.8584  -2.8584  -2.7622  -2.7622  -2.7529  -2.7529
    -2.6599  -2.6599  -2.5779  -2.5779  -2.5247  -2.5247  -2.4162  -2.4162
    -2.3391  -2.3391  -2.2830  -2.2830  -2.2690  -2.2690  -2.1741  -2.1741
    -2.1602  -2.1602  -2.1103  -2.1103  -1.6777  -1.6777  -1.6252  -1.6252
    -1.4971  -1.4971  -1.4371  -1.4371  -1.2937  -1.2937  -1.2594  -1.2594
    -1.1667  -1.1667  -1.0325  -1.0324  -0.0913  -0.0912  -0.0406  -0.0406
     0.0725   0.0725   0.2309   0.2309   0.3192   0.3192   0.4029   0.4029
     0.5758   0.5758   0.6485   0.6485   0.9210   0.9210   1.0894   1.0894
     1.7121   1.7121   1.9009   1.9009

          k = 0.0000 0.3928 0.0000 ( 26230 PWs)   bands (ev):

   -20.6438 -20.6411 -20.6411 -20.6378 -19.6176 -19.6162 -19.6083 -19.6059
   -17.7239 -17.7233 -17.7169 -17.7139 -14.8039 -14.7930 -14.7895 -14.7806
   -14.7454 -14.7372 -14.7331 -14.7232 -13.3452 -13.3256 -13.3077 -13.3030
   -12.6402 -12.6367 -12.6130 -12.5974 -12.1669 -12.1562 -12.0982 -12.0789
   -11.8878 -11.8853 -11.8191 -11.8157 -11.7501 -11.7419 -11.7308 -11.7278
   -11.3307 -11.3262 -11.2756 -11.2579 -10.3740 -10.3699 -10.3566 -10.3443
    -9.4705  -9.4521  -9.4488  -9.4258  -8.7440  -8.7343  -8.6867  -8.6687
    -8.4925  -8.4411  -8.4325  -8.3874  -8.2262  -8.2119  -8.1600  -8.1471
    -7.6597  -7.6201  -7.5408  -7.5182  -6.8342  -6.8310  -6.7695  -6.7425
    -6.4586  -6.4047  -6.3816  -6.3033  -6.1398  -6.1258  -6.1241  -6.1147
    -5.9391  -5.9090  -5.8896  -5.8776  -5.4477  -5.4270  -5.3508  -5.3324
    -5.2992  -5.2767  -5.1811  -5.1656  -4.9576  -4.9344  -4.8736  -4.8562
    -4.7903  -4.7832  -4.7386  -4.7330  -4.4578  -4.4382  -4.4370  -4.3533
    -4.3503  -4.2763  -4.2440  -4.2123  -4.1750  -4.0828  -4.0285  -3.9721
    -3.9463  -3.9062  -3.8748  -3.8308  -3.8040  -3.7791  -3.7391  -3.7049
    -3.5761  -3.5581  -3.5395  -3.5312  -3.5010  -3.4879  -3.4455  -3.4234
    -3.1271  -3.1156  -3.1103  -3.1041  -3.0475  -2.9876  -2.9828  -2.9706
    -2.9450  -2.9109  -2.8768  -2.8740  -2.8153  -2.8062  -2.7301  -2.7193
    -2.6554  -2.6374  -2.5722  -2.5348  -2.5224  -2.5120  -2.4692  -2.4459
    -2.3534  -2.3429  -2.3193  -2.3156  -2.2399  -2.2372  -2.1918  -2.1860
    -2.1606  -2.1298  -2.1123  -2.1064  -1.7271  -1.7099  -1.5819  -1.5799
    -1.5463  -1.4967  -1.4223  -1.3919  -1.2977  -1.2717  -1.2640  -1.2233
    -1.1969  -1.1875  -1.0897  -0.9995  -0.0960  -0.0778  -0.0512   0.0113
     0.0179   0.0890   0.1792   0.2385   0.2880   0.3087   0.3861   0.4102
     0.5497   0.5825   0.6469   0.6568   0.9284   0.9818   1.0076   1.0783
     1.7077   1.7305   1.8942   1.9234

          k = 0.0000 0.3928-0.5389 ( 26234 PWs)   bands (ev):

   -20.6456 -20.6456 -20.6411 -20.6411 -19.6120 -19.6120 -19.6095 -19.6095
   -17.7261 -17.7260 -17.7142 -17.7142 -14.8034 -14.8034 -14.7824 -14.7824
   -14.7436 -14.7436 -14.7309 -14.7309 -13.3436 -13.3436 -13.2997 -13.2997
   -12.6225 -12.6225 -12.6186 -12.6186 -12.1656 -12.1656 -12.0870 -12.0870
   -11.8533 -11.8533 -11.8510 -11.8510 -11.7392 -11.7392 -11.7343 -11.7343
   -11.3306 -11.3306 -11.2683 -11.2683 -10.3742 -10.3742 -10.3464 -10.3464
    -9.4612  -9.4612  -9.4345  -9.4345  -8.7242  -8.7242  -8.7004  -8.7004
    -8.4647  -8.4647  -8.4156  -8.4156  -8.2006  -8.2006  -8.1692  -8.1692
    -7.6527  -7.6527  -7.5161  -7.5161  -6.8624  -6.8624  -6.7323  -6.7323
    -6.4288  -6.4288  -6.3338  -6.3338  -6.1503  -6.1503  -6.1077  -6.1077
    -5.9229  -5.9229  -5.8835  -5.8835  -5.4015  -5.4015  -5.3641  -5.3641
    -5.2340  -5.2340  -5.2090  -5.2090  -4.9578  -4.9578  -4.8669  -4.8668
    -4.7704  -4.7704  -4.7260  -4.7260  -4.4723  -4.4723  -4.4278  -4.4278
    -4.3291  -4.3291  -4.2875  -4.2875  -4.1128  -4.1128  -3.9897  -3.9897
    -3.8827  -3.8827  -3.8257  -3.8257  -3.7496  -3.7496  -3.6927  -3.6927
    -3.6131  -3.6131  -3.5529  -3.5528  -3.4909  -3.4908  -3.4643  -3.4643
    -3.1399  -3.1399  -3.1158  -3.1158  -2.9712  -2.9712  -2.9603  -2.9603
    -2.9167  -2.9167  -2.8682  -2.8682  -2.7951  -2.7951  -2.7324  -2.7324
    -2.6594  -2.6594  -2.6149  -2.6149  -2.5403  -2.5403  -2.4383  -2.4383
    -2.3456  -2.3456  -2.2908  -2.2908  -2.2394  -2.2394  -2.1799  -2.1799
    -2.1579  -2.1579  -2.1076  -2.1076  -1.6494  -1.6494  -1.6118  -1.6118
    -1.5045  -1.5045  -1.4595  -1.4595  -1.3037  -1.3037  -1.2355  -1.2355
    -1.1900  -1.1900  -1.0353  -1.0353  -0.0938  -0.0937  -0.0422  -0.0422
     0.0610   0.0610   0.2420   0.2420   0.2867   0.2867   0.4161   0.4161
     0.5771   0.5771   0.6406   0.6406   0.9519   0.9519   1.0398   1.0398
     1.7174   1.7174   1.8972   1.8972

          k =-0.5000 0.0000-0.2433 ( 26244 PWs)   bands (ev):

   -20.6509 -20.6474 -20.6430 -20.6376 -19.6194 -19.6144 -19.6127 -19.6063
   -17.7299 -17.7292 -17.7184 -17.7181 -14.8122 -14.8040 -14.7956 -14.7942
   -14.7461 -14.7396 -14.7339 -14.7167 -13.3435 -13.3299 -13.3151 -13.3107
   -12.6470 -12.6438 -12.6313 -12.5906 -12.1822 -12.1535 -12.1116 -12.0677
   -11.8519 -11.8514 -11.8246 -11.8093 -11.7772 -11.7684 -11.7369 -11.7172
   -11.3302 -11.3290 -11.2816 -11.2527 -10.4153 -10.3804 -10.3427 -10.3240
    -9.4807  -9.4511  -9.4141  -9.4000  -8.7894  -8.7703  -8.6697  -8.6488
    -8.5253  -8.4456  -8.4164  -8.3727  -8.2595  -8.1723  -8.1699  -8.1566
    -7.6621  -7.5891  -7.5478  -7.5330  -6.8246  -6.8187  -6.8182  -6.7152
    -6.4788  -6.4236  -6.3852  -6.2674  -6.1781  -6.1518  -6.1252  -6.0893
    -5.9508  -5.9103  -5.8984  -5.8502  -5.4464  -5.3787  -5.3567  -5.3349
    -5.2576  -5.2549  -5.2056  -5.1805  -4.9821  -4.9603  -4.9060  -4.7931
    -4.7922  -4.7773  -4.7348  -4.6540  -4.6158  -4.4391  -4.4334  -4.3176
    -4.3011  -4.2471  -4.2307  -4.2054  -4.1635  -4.1115  -4.0620  -4.0540
    -3.9507  -3.9336  -3.8674  -3.7744  -3.7596  -3.7591  -3.7029  -3.7012
    -3.5762  -3.5756  -3.5652  -3.5310  -3.4774  -3.4609  -3.4468  -3.4348
    -3.1770  -3.1482  -3.1321  -3.1070  -3.0607  -2.9955  -2.9929  -2.9734
    -2.9651  -2.8689  -2.8386  -2.8348  -2.8207  -2.7999  -2.7521  -2.7432
    -2.6171  -2.6150  -2.5978  -2.5634  -2.5490  -2.4687  -2.4612  -2.4584
    -2.3434  -2.3344  -2.3077  -2.2760  -2.2605  -2.2387  -2.2121  -2.2082
    -2.1575  -2.1548  -2.1405  -2.0981  -1.7782  -1.6661  -1.6066  -1.5649
    -1.5599  -1.4905  -1.4705  -1.3556  -1.3004  -1.2728  -1.2312  -1.2081
    -1.1853  -1.1545  -1.1212  -0.9427  -0.0536  -0.0469  -0.0442   0.0041
     0.0134   0.1376   0.1611   0.2049   0.2079   0.3067   0.3856   0.3906
     0.5599   0.5747   0.5816   0.6706   0.8358   0.8742   1.0460   1.1427
     1.7147   1.8182   1.9172   2.0118

          k =-0.5000 0.0000-0.7823 ( 26276 PWs)   bands (ev):

   -20.6516 -20.6516 -20.6429 -20.6429 -19.6176 -19.6176 -19.6111 -19.6111
   -17.7310 -17.7310 -17.7207 -17.7207 -14.8079 -14.8079 -14.7987 -14.7987
   -14.7430 -14.7430 -14.7250 -14.7250 -13.3462 -13.3462 -13.3042 -13.3042
   -12.6434 -12.6434 -12.6126 -12.6126 -12.1708 -12.1708 -12.0878 -12.0878
   -11.8384 -11.8384 -11.8326 -11.8326 -11.7535 -11.7535 -11.7412 -11.7411
   -11.3316 -11.3316 -11.2715 -11.2715 -10.3847 -10.3847 -10.3468 -10.3468
    -9.4496  -9.4496  -9.4280  -9.4280  -8.7240  -8.7240  -8.7071  -8.7071
    -8.4859  -8.4859  -8.3906  -8.3906  -8.2276  -8.2276  -8.1609  -8.1609
    -7.6627  -7.6627  -7.5108  -7.5108  -6.8627  -6.8627  -6.7275  -6.7275
    -6.4580  -6.4580  -6.3159  -6.3159  -6.1531  -6.1531  -6.1071  -6.1071
    -5.9267  -5.9267  -5.8758  -5.8758  -5.3919  -5.3919  -5.3410  -5.3410
    -5.2533  -5.2533  -5.2031  -5.2031  -5.0188  -5.0187  -4.8775  -4.8775
    -4.8078  -4.8078  -4.6893  -4.6893  -4.5182  -4.5182  -4.3243  -4.3243
    -4.3080  -4.3080  -4.2533  -4.2533  -4.1317  -4.1317  -3.9845  -3.9845
    -3.9070  -3.9070  -3.8429  -3.8429  -3.7755  -3.7755  -3.7178  -3.7178
    -3.6573  -3.6573  -3.5286  -3.5286  -3.4896  -3.4896  -3.4263  -3.4263
    -3.1635  -3.1635  -3.1213  -3.1213  -3.0093  -3.0093  -2.9536  -2.9536
    -2.8979  -2.8979  -2.8354  -2.8354  -2.7933  -2.7933  -2.7807  -2.7807
    -2.6312  -2.6312  -2.5825  -2.5825  -2.4925  -2.4925  -2.4454  -2.4454
    -2.3581  -2.3581  -2.3232  -2.3232  -2.2641  -2.2641  -2.2146  -2.2146
    -2.1382  -2.1382  -2.1116  -2.1116  -1.6713  -1.6713  -1.6079  -1.6079
    -1.5171  -1.5171  -1.4736  -1.4736  -1.3003  -1.3003  -1.2245  -1.2245
    -1.1701  -1.1701  -1.0124  -1.0124  -0.0665  -0.0665  -0.0405  -0.0405
     0.0989   0.0989   0.1940   0.1940   0.2847   0.2847   0.3700   0.3700
     0.5516   0.5516   0.6173   0.6173   0.8476   0.8476   1.0862   1.0862
     1.7568   1.7568   1.9667   1.9667

          k =-0.5000 0.3928-0.2433 ( 26248 PWs)   bands (ev):

   -20.6481 -20.6459 -20.6430 -20.6383 -19.6155 -19.6124 -19.6107 -19.6084
   -17.7307 -17.7291 -17.7213 -17.7143 -14.8074 -14.8050 -14.7941 -14.7941
   -14.7455 -14.7384 -14.7341 -14.7203 -13.3412 -13.3339 -13.3131 -13.3089
   -12.6438 -12.6344 -12.6235 -12.5997 -12.1750 -12.1602 -12.0996 -12.0802
   -11.8548 -11.8524 -11.8163 -11.8107 -11.7715 -11.7668 -11.7328 -11.7222
   -11.3294 -11.3283 -11.2776 -11.2596 -10.4083 -10.3906 -10.3411 -10.3247
    -9.4730  -9.4598  -9.4082  -9.4037  -8.7821  -8.7708  -8.6630  -8.6516
    -8.5043  -8.4494  -8.4225  -8.3835  -8.2462  -8.2076  -8.1685  -8.1530
    -7.6410  -7.6082  -7.5304  -7.5250  -6.8359  -6.8304  -6.7826  -6.7363
    -6.4506  -6.4068  -6.3832  -6.3057  -6.1635  -6.1361  -6.1302  -6.1006
    -5.9385  -5.9124  -5.8979  -5.8674  -5.4283  -5.3899  -5.3761  -5.3582
    -5.2527  -5.2523  -5.1931  -5.1825  -4.9714  -4.9259  -4.8890  -4.8269
    -4.8086  -4.7586  -4.7428  -4.6840  -4.5487  -4.4413  -4.4019  -4.3855
    -4.3748  -4.3258  -4.2323  -4.1994  -4.1482  -4.1334  -4.0839  -3.9971
    -3.8942  -3.8882  -3.8571  -3.8141  -3.7516  -3.7137  -3.7015  -3.7010
    -3.5875  -3.5864  -3.5769  -3.5519  -3.4995  -3.4796  -3.4365  -3.4241
    -3.1580  -3.1412  -3.1131  -3.0896  -3.0541  -3.0034  -2.9803  -2.9802
    -2.9530  -2.8911  -2.8624  -2.8554  -2.7975  -2.7862  -2.7685  -2.7434
    -2.6349  -2.6250  -2.5827  -2.5755  -2.5145  -2.4923  -2.4862  -2.4534
    -2.3509  -2.3502  -2.3145  -2.2921  -2.2386  -2.2168  -2.2134  -2.1932
    -2.1602  -2.1436  -2.1368  -2.0981  -1.7329  -1.6522  -1.6122  -1.5961
    -1.5492  -1.5399  -1.4220  -1.3554  -1.2719  -1.2627  -1.2394  -1.2145
    -1.1967  -1.1794  -1.0693  -0.9823  -0.0405  -0.0360  -0.0317   0.0008
     0.0234   0.0747   0.1616   0.1815   0.2388   0.2866   0.3803   0.3837
     0.5577   0.5626   0.6167   0.6562   0.8806   0.9278   0.9752   1.0562
     1.7645   1.8098   1.9485   1.9955

          k =-0.5000 0.3928-0.7823 ( 26274 PWs)   bands (ev):

   -20.6494 -20.6494 -20.6460 -20.6460 -19.6155 -19.6155 -19.6142 -19.6142
   -17.7272 -17.7272 -17.7194 -17.7194 -14.8045 -14.8045 -14.7965 -14.7965
   -14.7390 -14.7390 -14.7303 -14.7303 -13.3458 -13.3458 -13.3035 -13.3035
   -12.6357 -12.6357 -12.6187 -12.6187 -12.1693 -12.1693 -12.0916 -12.0916
   -11.8410 -11.8410 -11.8249 -11.8249 -11.7508 -11.7508 -11.7443 -11.7443
   -11.3302 -11.3302 -11.2716 -11.2716 -10.3805 -10.3805 -10.3497 -10.3497
    -9.4465  -9.4465  -9.4348  -9.4348  -8.7212  -8.7211  -8.7110  -8.7110
    -8.4644  -8.4644  -8.4164  -8.4164  -8.2264  -8.2264  -8.1635  -8.1635
    -7.6561  -7.6561  -7.5071  -7.5071  -6.8578  -6.8578  -6.7366  -6.7366
    -6.4288  -6.4288  -6.3393  -6.3393  -6.1431  -6.1431  -6.1184  -6.1184
    -5.9206  -5.9206  -5.8907  -5.8907  -5.4154  -5.4154  -5.3362  -5.3362
    -5.2416  -5.2416  -5.2094  -5.2094  -4.9690  -4.9690  -4.8839  -4.8839
    -4.7821  -4.7821  -4.7334  -4.7334  -4.4648  -4.4648  -4.3642  -4.3642
    -4.3037  -4.3037  -4.2870  -4.2870  -4.1643  -4.1643  -4.0035  -4.0035
    -3.8896  -3.8896  -3.8326  -3.8326  -3.7793  -3.7793  -3.7206  -3.7206
    -3.6339  -3.6339  -3.5588  -3.5588  -3.4762  -3.4762  -3.4152  -3.4152
    -3.1262  -3.1262  -3.0984  -3.0984  -3.0086  -3.0086  -2.9697  -2.9697
    -2.8916  -2.8916  -2.8566  -2.8566  -2.8007  -2.8007  -2.7783  -2.7783
    -2.6275  -2.6275  -2.6037  -2.6037  -2.4905  -2.4905  -2.4605  -2.4605
    -2.3769  -2.3769  -2.3279  -2.3279  -2.2496  -2.2496  -2.2028  -2.2028
    -2.1179  -2.1179  -2.1065  -2.1065  -1.6770  -1.6770  -1.6075  -1.6075
    -1.4933  -1.4933  -1.4606  -1.4606  -1.2930  -1.2930  -1.2262  -1.2262
    -1.2001  -1.2001  -1.0143  -1.0143  -0.0657  -0.0657  -0.0353  -0.0353
     0.0431   0.0431   0.2296   0.2296   0.2733   0.2733   0.3598   0.3598
     0.5673   0.5673   0.6198   0.6198   0.8984   0.8984   1.0185   1.0185
     1.7793   1.7793   1.9679   1.9679

!    total energy              =   -1154.94017616 Ry
     Harris-Foulkes estimate   =   -1154.94017618 Ry
     estimated scf accuracy    <       0.00000003 Ry

     The total energy is the sum of the following terms:

     one-electron contribution =    -817.28629282 Ry
     hartree contribution      =     546.88933824 Ry
     xc contribution           =    -353.84543908 Ry
     ewald contribution        =    -530.69778251 Ry

     convergence has been achieved in   8 iterations

     Forces acting on atoms (Ry/au):

     atom    1 type  1   force =    -0.00061709    0.00026695    0.00118345
     atom    2 type  1   force =     0.00061709   -0.00026695   -0.00118345
     atom    3 type  1   force =     0.00061709    0.00026695   -0.00118345
     atom    4 type  1   force =    -0.00061709   -0.00026695    0.00118345
     atom    5 type  1   force =    -0.00304740   -0.00001517    0.00102487
     atom    6 type  1   force =     0.00304740    0.00001517   -0.00102487
     atom    7 type  1   force =     0.00304740   -0.00001517   -0.00102487
     atom    8 type  1   force =    -0.00304740    0.00001517    0.00102487
     atom    9 type  1   force =     0.00275909   -0.00097974   -0.00273447
     atom   10 type  1   force =    -0.00275909    0.00097974    0.00273447
     atom   11 type  1   force =    -0.00275909   -0.00097974    0.00273447
     atom   12 type  1   force =     0.00275909    0.00097974   -0.00273447
     atom   13 type  1   force =    -0.00112565    0.00213066    0.00182681
     atom   14 type  1   force =     0.00112565   -0.00213066   -0.00182681
     atom   15 type  1   force =     0.00112565    0.00213066   -0.00182681
     atom   16 type  1   force =    -0.00112565   -0.00213066    0.00182681
     atom   17 type  1   force =    -0.00036030   -0.00133428   -0.00106268
     atom   18 type  1   force =     0.00036030    0.00133428    0.00106268
     atom   19 type  1   force =     0.00036030   -0.00133428    0.00106268
     atom   20 type  1   force =    -0.00036030    0.00133428   -0.00106268
     atom   21 type  1   force =     0.00043541    0.00131066    0.00052996
     atom   22 type  1   force =    -0.00043541   -0.00131066   -0.00052996
     atom   23 type  1   force =    -0.00043541    0.00131066   -0.00052996
     atom   24 type  1   force =     0.00043541   -0.00131066    0.00052996
     atom   25 type  1   force =     0.00051442   -0.00208470   -0.00446128
     atom   26 type  1   force =    -0.00051442    0.00208470    0.00446128
     atom   27 type  1   force =    -0.00051442   -0.00208470    0.00446128
     atom   28 type  1   force =     0.00051442    0.00208470   -0.00446128
     atom   29 type  1   force =     0.00119784    0.00082511   -0.00047117
     atom   30 type  1   force =    -0.00119784   -0.00082511    0.00047117
     atom   31 type  1   force =    -0.00119784    0.00082511    0.00047117
     atom   32 type  1   force =     0.00119784   -0.00082511   -0.00047117
     atom   33 type  1   force =     0.00088301    0.00097960    0.00140447
     atom   34 type  1   force =    -0.00088301   -0.00097960   -0.00140447
     atom   35 type  1   force =    -0.00088301    0.00097960   -0.00140447
     atom   36 type  1   force =     0.00088301   -0.00097960    0.00140447
     atom   37 type  1   force =     0.00097780    0.00012612    0.00002500
     atom   38 type  1   force =    -0.00097780   -0.00012612   -0.00002500
     atom   39 type  1   force =    -0.00097780    0.00012612   -0.00002500
     atom   40 type  1   force =     0.00097780   -0.00012612    0.00002500
     atom   41 type  1   force =    -0.00066313   -0.00113516   -0.00055862
     atom   42 type  1   force =     0.00066313    0.00113516    0.00055862
     atom   43 type  1   force =     0.00066313   -0.00113516    0.00055862
     atom   44 type  1   force =    -0.00066313    0.00113516   -0.00055862
     atom   45 type  1   force =     0.00113677    0.00058880    0.00090565
[...]
     atom   12 type  1   force =     0.00022826    0.00019917   -0.00066772
     atom   13 type  1   force =     0.00017518   -0.00003903    0.00000931
     atom   14 type  1   force =    -0.00017518    0.00003903   -0.00000931
     atom   15 type  1   force =    -0.00017518   -0.00003903   -0.00000931
     atom   16 type  1   force =     0.00017518    0.00003903    0.00000931
     atom   17 type  1   force =     0.00003552    0.00016097   -0.00017212
     atom   18 type  1   force =    -0.00003552   -0.00016097    0.00017212
     atom   19 type  1   force =    -0.00003552    0.00016097    0.00017212
     atom   20 type  1   force =     0.00003552   -0.00016097   -0.00017212
     atom   21 type  1   force =     0.00035572   -0.00009894    0.00047045
     atom   22 type  1   force =    -0.00035572    0.00009894   -0.00047045
     atom   23 type  1   force =    -0.00035572   -0.00009894   -0.00047045
     atom   24 type  1   force =     0.00035572    0.00009894    0.00047045
     atom   25 type  1   force =     0.00021303    0.00052633   -0.00044286
     atom   26 type  1   force =    -0.00021303   -0.00052633    0.00044286
     atom   27 type  1   force =    -0.00021303    0.00052633    0.00044286
     atom   28 type  1   force =     0.00021303   -0.00052633   -0.00044286
     atom   29 type  1   force =     0.00001329   -0.00004404   -0.00013154
     atom   30 type  1   force =    -0.00001329    0.00004404    0.00013154
     atom   31 type  1   force =    -0.00001329   -0.00004404    0.00013154
     atom   32 type  1   force =     0.00001329    0.00004404   -0.00013154
     atom   33 type  1   force =    -0.00046366   -0.00020601   -0.00020660
     atom   34 type  1   force =     0.00046366    0.00020601    0.00020660
     atom   35 type  1   force =     0.00046366   -0.00020601    0.00020660
     atom   36 type  1   force =    -0.00046366    0.00020601   -0.00020660
     atom   37 type  1   force =    -0.00013130    0.00002247    0.00009761
     atom   38 type  1   force =     0.00013130   -0.00002247   -0.00009761
     atom   39 type  1   force =     0.00013130    0.00002247   -0.00009761
     atom   40 type  1   force =    -0.00013130   -0.00002247    0.00009761
     atom   41 type  1   force =    -0.00010896    0.00043833    0.00016690
     atom   42 type  1   force =     0.00010896   -0.00043833   -0.00016690
     atom   43 type  1   force =     0.00010896    0.00043833   -0.00016690
     atom   44 type  1   force =    -0.00010896   -0.00043833    0.00016690
     atom   45 type  1   force =    -0.00017564   -0.00004333   -0.00012981
     atom   46 type  1   force =     0.00017564    0.00004333    0.00012981
     atom   47 type  1   force =     0.00017564   -0.00004333    0.00012981
     atom   48 type  1   force =    -0.00017564    0.00004333   -0.00012981
     atom   49 type  1   force =    -0.00012258   -0.00024212   -0.00008111
     atom   50 type  1   force =     0.00012258    0.00024212    0.00008111
     atom   51 type  1   force =     0.00012258   -0.00024212    0.00008111
     atom   52 type  1   force =    -0.00012258    0.00024212   -0.00008111
     atom   53 type  1   force =     0.00041858    0.00017270   -0.00021429
     atom   54 type  1   force =    -0.00041858   -0.00017270    0.00021429
     atom   55 type  1   force =    -0.00041858    0.00017270    0.00021429
     atom   56 type  1   force =     0.00041858   -0.00017270   -0.00021429
     atom   57 type  1   force =    -0.00034766    0.00005515   -0.00032132
     atom   58 type  1   force =     0.00034766   -0.00005515    0.00032132
     atom   59 type  1   force =     0.00034766    0.00005515    0.00032132
     atom   60 type  1   force =    -0.00034766   -0.00005515   -0.00032132
     atom   61 type  1   force =    -0.00015106   -0.00014037    0.00004577
     atom   62 type  1   force =     0.00015106    0.00014037   -0.00004577
     atom   63 type  1   force =     0.00015106   -0.00014037   -0.00004577
     atom   64 type  1   force =    -0.00015106    0.00014037    0.00004577
     atom   65 type  1   force =     0.00050068    0.00008430   -0.00002893
     atom   66 type  1   force =    -0.00050068   -0.00008430    0.00002893
     atom   67 type  1   force =    -0.00050068    0.00008430    0.00002893
     atom   68 type  1   force =     0.00050068   -0.00008430   -0.00002893
     atom   69 type  2   force =     0.00020782    0.00007542   -0.00032501
     atom   70 type  2   force =    -0.00020782   -0.00007542    0.00032501
     atom   71 type  2   force =    -0.00020782    0.00007542    0.00032501
     atom   72 type  2   force =     0.00020782   -0.00007542   -0.00032501
     atom   73 type  2   force =    -0.00048201   -0.00014700    0.00000149
     atom   74 type  2   force =     0.00048201    0.00014700   -0.00000149
     atom   75 type  2   force =     0.00048201   -0.00014700   -0.00000149
     atom   76 type  2   force =    -0.00048201    0.00014700    0.00000149
     atom   77 type  2   force =    -0.00007238   -0.00045511   -0.00012281
     atom   78 type  2   force =     0.00007238    0.00045511    0.00012281
     atom   79 type  2   force =     0.00007238   -0.00045511    0.00012281
     atom   80 type  2   force =    -0.00007238    0.00045511   -0.00012281
     atom   81 type  2   force =     0.00024853    0.00022963   -0.00034732
     atom   82 type  2   force =    -0.00024853   -0.00022963    0.00034732
     atom   83 type  2   force =    -0.00024853    0.00022963    0.00034732
     atom   84 type  2   force =     0.00024853   -0.00022963   -0.00034732
     atom   85 type  2   force =     0.00003194   -0.00006517   -0.00040351
     atom   86 type  2   force =    -0.00003194    0.00006517    0.00040351
     atom   87 type  2   force =    -0.00003194   -0.00006517    0.00040351
     atom   88 type  2   force =     0.00003194    0.00006517   -0.00040351
     atom   89 type  2   force =    -0.00005423   -0.00016207   -0.00014764
     atom   90 type  2   force =     0.00005423    0.00016207    0.00014764
     atom   91 type  2   force =     0.00005423   -0.00016207    0.00014764
     atom   92 type  2   force =    -0.00005423    0.00016207   -0.00014764
     atom   93 type  2   force =     0.00013564   -0.00034970   -0.00001398
     atom   94 type  2   force =    -0.00013564    0.00034970    0.00001398
     atom   95 type  2   force =    -0.00013564   -0.00034970    0.00001398
     atom   96 type  2   force =     0.00013564    0.00034970   -0.00001398
     atom   97 type  2   force =     0.00015235   -0.00021544   -0.00001369
     atom   98 type  2   force =    -0.00015235    0.00021544    0.00001369
     atom   99 type  2   force =    -0.00015235   -0.00021544    0.00001369
     atom  100 type  2   force =     0.00015235    0.00021544   -0.00001369
     atom  101 type  2   force =    -0.00013965    0.00006985   -0.00015192
     atom  102 type  2   force =     0.00013965   -0.00006985    0.00015192
     atom  103 type  2   force =     0.00013965    0.00006985    0.00015192
     atom  104 type  2   force =    -0.00013965   -0.00006985   -0.00015192
     atom  105 type  2   force =     0.00040562   -0.00013642   -0.00001259
     atom  106 type  2   force =    -0.00040562    0.00013642    0.00001259
     atom  107 type  2   force =    -0.00040562   -0.00013642    0.00001259
     atom  108 type  2   force =     0.00040562    0.00013642   -0.00001259
     atom  109 type  2   force =     0.00003246   -0.00013990    0.00017282
     atom  110 type  2   force =    -0.00003246    0.00013990   -0.00017282
     atom  111 type  2   force =    -0.00003246   -0.00013990   -0.00017282
     atom  112 type  2   force =     0.00003246    0.00013990    0.00017282
     atom  113 type  2   force =    -0.00003822    0.00000406   -0.00011911
     atom  114 type  2   force =     0.00003822   -0.00000406    0.00011911
     atom  115 type  2   force =     0.00003822    0.00000406    0.00011911
     atom  116 type  2   force =    -0.00003822   -0.00000406   -0.00011911
     atom  117 type  2   force =    -0.00032152    0.00039215    0.00028473
     atom  118 type  2   force =     0.00032152   -0.00039215   -0.00028473
     atom  119 type  2   force =     0.00032152    0.00039215   -0.00028473
     atom  120 type  2   force =    -0.00032152   -0.00039215    0.00028473
     atom  121 type  2   force =    -0.00040943    0.00009226   -0.00012328
     atom  122 type  2   force =     0.00040943   -0.00009226    0.00012328
     atom  123 type  2   force =     0.00040943    0.00009226    0.00012328
     atom  124 type  2   force =    -0.00040943   -0.00009226   -0.00012328
     atom  125 type  2   force =    -0.00014210   -0.00019046   -0.00016643
     atom  126 type  2   force =     0.00014210    0.00019046    0.00016643
     atom  127 type  2   force =     0.00014210   -0.00019046    0.00016643
     atom  128 type  2   force =    -0.00014210    0.00019046   -0.00016643
     atom  129 type  2   force =     0.00004395   -0.00017163    0.00028328
     atom  130 type  2   force =    -0.00004395    0.00017163   -0.00028328
     atom  131 type  2   force =    -0.00004395   -0.00017163   -0.00028328
     atom  132 type  2   force =     0.00004395    0.00017163    0.00028328
     atom  133 type  2   force =     0.00029138   -0.00006633   -0.00033665
     atom  134 type  2   force =    -0.00029138    0.00006633    0.00033665
     atom  135 type  2   force =    -0.00029138   -0.00006633    0.00033665
     atom  136 type  2   force =     0.00029138    0.00006633   -0.00033665
     atom  137 type  4   force =     0.00020633   -0.00021439    0.00000591
     atom  138 type  4   force =    -0.00020633    0.00021439   -0.00000591
     atom  139 type  4   force =    -0.00020633   -0.00021439   -0.00000591
     atom  140 type  4   force =     0.00020633    0.00021439    0.00000591
     atom  141 type  3   force =    -0.00009138    0.00048078    0.00051291
     atom  142 type  3   force =     0.00009138   -0.00048078   -0.00051291
     atom  143 type  3   force =     0.00009138    0.00048078   -0.00051291
     atom  144 type  3   force =    -0.00009138   -0.00048078    0.00051291
     atom  145 type  3   force =    -0.00026365    0.00044645    0.00035253
     atom  146 type  3   force =     0.00026365   -0.00044645   -0.00035253
     atom  147 type  3   force =     0.00026365    0.00044645   -0.00035253
     atom  148 type  3   force =    -0.00026365   -0.00044645    0.00035253

     Total force =     0.005356     Total SCF correction =     0.000050

     bfgs converged in  18 scf cycles and  17 bfgs steps
     (criteria: energy < 0.10E-03, force < 0.10E-02)

     End of BFGS Geometry Optimization

     Final energy   =   -1154.9433059660 Ry
Begin final coordinates

ATOMIC_POSITIONS (angstrom)
C        4.834984855   3.464962809   4.556539583
C        1.812994145   6.820036191   6.687659417
C        4.549004145   8.607463809   1.065560417
C        2.098974855   1.677537191  10.178639583
C        3.594765151   2.825283239   4.283251773
C        3.053214849   7.459716761   6.960947227
C        5.789224849   7.967783239   1.338847227
C        0.858755151   2.317216761   9.905351773
C        3.437170508   2.017675570   3.144740992
C        3.210808492   8.267324430   8.099458008
C        5.946819492   7.160175570   2.477358008
C        0.701160508   3.124824430   8.766840992
C        4.517953029   1.836989564   2.243951857
C        2.130026971   8.448010436   9.000248143
C        4.866036971   6.979489564   3.378148143
C        1.781942029   3.305510436   7.866050857
C        5.739058023   2.482654970   2.493126099
C        0.908921977   7.802345030   8.751073901
C        3.644931977   7.625154970   3.128973901
C        3.003047023   2.659845030   8.115226099
C        5.945439077   3.310979059   3.639756729
C        0.702540923   6.974020941   7.604442271
C        3.438550923   8.453479059   1.982343271
C        3.209428077   1.831520941   9.261856729
C        7.246144850   3.998891001   3.894704726
C       -0.598164850   6.286108999   7.349495274
C        2.137845150   9.141391001   1.727395274
C        4.510134850   1.143608999   9.516804726
C        8.373076576   3.808884284   2.992823699
C       -1.725097576   6.476115716   8.251376301
C        1.010912424   8.951384284   2.629276301
C        5.637066576   1.333615716   8.614922699
C        9.582061900   4.472861568   3.178864594
C       -2.934082900   5.812138432   8.065335406
C       -0.198072900   9.615360568   2.443235406
C        6.846051900   0.669638432   8.800964594
C       10.804371414   4.306810936   2.425685182
C       -4.156391414   5.978189064   8.818514818
C       -1.420381414   9.449309936   3.196414818
C        8.068361414   0.835689064   8.047784182
C       10.978488372   3.345361110   1.375757068
C       -4.330508372   6.939638890   9.868442932
C       -1.594498372   8.487861110   4.246342932
C        8.242478372   1.797138890   6.997857068
C        0.075000834   3.189293576   0.710220327
C        6.572979166   7.095706424  10.533978673
C        9.308989166   8.331793576   4.911878673
C       -2.661009166   1.953206424   6.332320327
C        1.206710562   4.020227056   1.037446800
C        5.441269438   6.264772944  10.206752200
C        8.177279438   9.162727056   4.584653200
C       -1.529299438   1.122272944   6.659546800
C        1.054998169   4.971231326   2.105334255
C        5.592980831   5.313768674   9.138865745
C        8.328991831  10.113731326   3.516765745
C       -1.681011831   0.171268674   7.727433255
C       -0.170691126   5.098829933   2.764805332
C        6.818671126   5.186170067   8.479393668
C        9.554681126  10.241329933   2.857293668
C       -2.906702126   0.043670067   8.386905332
C       -2.957380340   2.912258186  10.501070837
C        9.605360340   7.372742814   0.743128163
C        6.869350340   8.054757186   6.365228163
C       -0.221370340   2.230241814   4.878970837
C        3.518086634   4.818770435   0.624835337
C        3.129893366   5.466229565  10.619364663
C        5.865903366   9.961270435   4.997264663
C        0.782075634   0.323729565   6.246934337
H        2.755224344   2.998997599   5.000453250
H        3.892754656   7.286001401   6.243746750
H        6.628765656   8.141497599   0.621646750
H        0.019214344   2.143501401  10.622552250
H        2.454310746   1.523972341   2.939080192
H        4.193668254   8.761027659   8.305118808
H        6.929678254   6.666472341   2.683019808
H       -0.281699254   3.618527659   8.561180192
H        4.403865283   1.191769576   1.340280478
H        2.244113717   9.093230424   9.903918522
H        4.980124717   6.334269576   4.281819522
H        1.667855283   3.950730424   6.962380478
H        6.569433936   2.327682281   1.763833808
H        0.078545064   7.957316719   9.480366192
H        2.814555064   7.470182281   3.858266192
H        3.833423936   2.814816719   7.385933808
H        8.267779930   3.085111659   2.149869305
H       -1.619800930   7.199888341   9.094330695
H        1.116209070   8.227611659   3.472230695
H        5.531769930   2.057388341   7.771968305
H        9.625154831   5.204894828   4.029276305
H       -2.977174831   5.080105172   7.214922695
H       -0.241164831  10.347394828   1.592822695
H        6.889143831  -0.062394828   9.651376305
H       10.124536404   2.690333851   1.071992229
H       -3.476557404   7.594666149  10.172207771
H       -0.740547404   7.832833851   4.550107771
H        7.388526404   2.452166149   6.694091229
H        0.151453097   2.425146987  -0.098379567
H        6.496526903   7.859853013  11.342578567
H        9.232536903   7.567645987   5.720479567
H       -2.584556903   2.717353013   5.523720433
H        1.914718682   5.611217508   2.415337926
H        4.733260318   4.673782492   8.828862074
H        7.469271318   0.468717508   3.206762074
H       -0.821291318   9.816282492   8.037436926
H       -0.274774626   5.844703261   3.591212042
H        6.922754626   4.440296739   7.652987958
H        9.658764626   0.702203261   2.030887958
H       -3.010784626   9.582796739   9.213312042
H       -3.138216925   1.868094814  10.883210285
H        9.786196925   8.416905186   0.360988715
H        7.050186925   7.010594814   5.983088715
H       -0.402206925   3.274405186   5.261110285
H       -1.925119904   2.958945627  10.069275627
H        8.573098904   7.326054373   1.174924373
H        5.837088904   8.101445627   6.797024373
H        0.810891096   2.183554373   4.447175627
H       -3.687290586   3.113765023   9.666602738
H       10.335270586   7.171233977   1.577596262
H        7.599260586   8.256265023   7.199696262
H       -0.951280586   2.028733977   4.044502738
H        3.212458163   5.897177918   0.502006012
H        3.435521837   4.387822082  10.742192988
H        6.171531837   0.754677918   5.120093988
H        0.476448163   9.530322082   6.124106012
H        4.356999932   4.609197233  -0.089671365
H        2.290979068   5.675802767  11.333871365
H        5.026989068   9.751697233   5.711771365
H        1.620989932   0.533302767   5.532428635
H        3.909273316   4.686373145   1.673495312
H        2.738706684   5.598625855   9.570704688
H        5.474716684   9.828874145   3.948604688
H        1.173263316   0.456126855   7.295594312
H        5.944407195   4.604995610   5.629368626
H        0.703572805   5.680004390   5.614831374
H       -2.032437195   9.747495610  11.236930374
H        8.680417195   0.537504390   0.007268626
N        2.398341014   3.906882369   0.335921184
N        4.249638986   6.378117631  10.908277816
N        6.985648986   9.049382369   5.286178816
N       -0.337668986   1.235617631   5.958021184
O        4.907398021   4.223758159   5.718966476
O        1.740581979   6.061241841   5.525232524
O       -0.995429021   9.366258159  11.147332524
O        7.643408021   0.918741841   0.096866476
O        7.386109865   4.787955298   4.966261068
O       -0.738130865   5.497044702   6.277937932
O        1.997879135   9.930455298   0.655837932
O        4.650099865   0.354544702  10.588361068
End final coordinates



     Writing output data file naphtha111.save
 
     init_run     :     66.78s CPU     73.04s WALL (       1 calls)
     electrons    :  22750.66s CPU  26666.72s WALL (      18 calls)
     update_pot   :     15.34s CPU     15.83s WALL (      17 calls)
     forces       :    138.78s CPU    141.76s WALL (      18 calls)

     Called by init_run:
     wfcinit      :     62.15s CPU     68.35s WALL (       1 calls)
     potinit      :      2.49s CPU      2.52s WALL (       1 calls)

     Called by electrons:
     c_bands      :  20813.31s CPU  24387.42s WALL (     180 calls)
     sum_band     :   1881.14s CPU   2066.73s WALL (     180 calls)
     v_of_rho     :     49.16s CPU     54.36s WALL (     198 calls)
     mix_rho      :      5.97s CPU      7.22s WALL (     180 calls)

     Called by c_bands:
     init_us_2    :     86.16s CPU     88.88s WALL (    3032 calls)
     cegterg      :  20760.43s CPU  22083.29s WALL (    1440 calls)

     Called by *egterg:
     h_psi        :  11269.30s CPU  12417.65s WALL (    7964 calls)
     g_psi        :    195.94s CPU    195.81s WALL (    6516 calls)
     cdiaghg      :   1172.01s CPU   1172.28s WALL (    7820 calls)

     Called by h_psi:
     add_vuspsi   :    475.69s CPU    475.97s WALL (    7964 calls)

     General routines
     calbec       :    465.42s CPU    465.22s WALL (    8108 calls)
     fft          :     16.27s CPU     19.40s WALL (    2179 calls)
     fftw         :  10365.82s CPU  11666.51s WALL ( 2077424 calls)
     davcio       :      0.24s CPU   2272.79s WALL (    4472 calls)
 
     Parallel routines
     fft_scatter  :   1345.38s CPU   1926.05s WALL ( 2079603 calls)
 
     PWSCF        :     6h22m CPU        7h29m WALL

 
   This run was terminated on:  23:59:24  28Nov2016            

=------------------------------------------------------------------------------=
   JOB DONE.
=------------------------------------------------------------------------------=
