 Entering Gaussian System, Link 0=g09
 Input=gauss.com
 Output=gauss.log
 Initial command:
 /share/apps/gaussian/g09_D01/g09/l1.exe "/tmp/3871099.1.chemistry.q/Gau-11535.inp" -scrdir="/tmp/3871099.1.chemistry.q/"
 Entering Link 1 = /share/apps/gaussian/g09_D01/g09/l1.exe PID=     11536.
  
 Copyright (c) 1988,1990,1992,1993,1995,1998,2003,2009,2013,
            Gaussian, Inc.  All Rights Reserved.
  
 This is part of the Gaussian(R) 09 program.  It is based on
 the Gaussian(R) 03 system (copyright 2003, Gaussian, Inc.),
 the Gaussian(R) 98 system (copyright 1998, Gaussian, Inc.),
 the Gaussian(R) 94 system (copyright 1995, Gaussian, Inc.),
 the Gaussian 92(TM) system (copyright 1992, Gaussian, Inc.),
 the Gaussian 90(TM) system (copyright 1990, Gaussian, Inc.),
 the Gaussian 88(TM) system (copyright 1988, Gaussian, Inc.),
 the Gaussian 86(TM) system (copyright 1986, Carnegie Mellon
 University), and the Gaussian 82(TM) system (copyright 1983,
 Carnegie Mellon University). Gaussian is a federally registered
 trademark of Gaussian, Inc.
  
 This software contains proprietary and confidential information,
 including trade secrets, belonging to Gaussian, Inc.
  
 This software is provided under written license and may be
 used, copied, transmitted, or stored only in accord with that
 written license.
  
 The following legend is applicable only to US Government
 contracts under FAR:
  
                    RESTRICTED RIGHTS LEGEND
  
 Use, reproduction and disclosure by the US Government is
 subject to restrictions as set forth in subparagraphs (a)
 and (c) of the Commercial Computer Software - Restricted
 Rights clause in FAR 52.227-19.
  
 Gaussian, Inc.
 340 Quinnipiac St., Bldg. 40, Wallingford CT 06492
  
  
 ---------------------------------------------------------------
 Warning -- This program may not be used in any manner that
 competes with the business of Gaussian, Inc. or will provide
 assistance to any competitor of Gaussian, Inc.  The licensee
 of this program is prohibited from giving any competitor of
 Gaussian, Inc. access to this program.  By using this program,
 the user acknowledges that Gaussian, Inc. is engaged in the
 business of creating and licensing software in the field of
 computational chemistry and represents and warrants to the
 licensee that it is not a competitor of Gaussian, Inc. and that
 it will not use this program in any manner prohibited above.
 ---------------------------------------------------------------
  

 Cite this work as:
 Gaussian 09, Revision D.01,
 M. J. Frisch, G. W. Trucks, H. B. Schlegel, G. E. Scuseria, 
 M. A. Robb, J. R. Cheeseman, G. Scalmani, V. Barone, B. Mennucci, 
 G. A. Petersson, H. Nakatsuji, M. Caricato, X. Li, H. P. Hratchian, 
 A. F. Izmaylov, J. Bloino, G. Zheng, J. L. Sonnenberg, M. Hada, 
 M. Ehara, K. Toyota, R. Fukuda, J. Hasegawa, M. Ishida, T. Nakajima, 
 Y. Honda, O. Kitao, H. Nakai, T. Vreven, J. A. Montgomery, Jr., 
 J. E. Peralta, F. Ogliaro, M. Bearpark, J. J. Heyd, E. Brothers, 
 K. N. Kudin, V. N. Staroverov, T. Keith, R. Kobayashi, J. Normand, 
 K. Raghavachari, A. Rendell, J. C. Burant, S. S. Iyengar, J. Tomasi, 
 M. Cossi, N. Rega, J. M. Millam, M. Klene, J. E. Knox, J. B. Cross, 
 V. Bakken, C. Adamo, J. Jaramillo, R. Gomperts, R. E. Stratmann, 
 O. Yazyev, A. J. Austin, R. Cammi, C. Pomelli, J. W. Ochterski, 
 R. L. Martin, K. Morokuma, V. G. Zakrzewski, G. A. Voth, 
 P. Salvador, J. J. Dannenberg, S. Dapprich, A. D. Daniels, 
 O. Farkas, J. B. Foresman, J. V. Ortiz, J. Cioslowski, 
 and D. J. Fox, Gaussian, Inc., Wallingford CT, 2013.
 
 ******************************************
 Gaussian 09:  ES64L-G09RevD.01 24-Apr-2013
                28-Nov-2016 
 ******************************************
 %chk=gck
 %mem=6GB
 %nproc=4
 Will use up to    4 processors via shared memory.
 ----------------------------------------------------------------------
 #p TD(Root=1,NStates=1) wb97xd 3-21G nosymm opt charge density=current
 ----------------------------------------------------------------------
 1/10=7,14=-1,18=10,26=3,28=-2,38=1,125=101/1,3;
 2/12=2,15=1,17=6,18=5,29=2,40=1/2;
 3/5=5,11=9,16=1,25=1,30=1,71=1,74=-58/1,2,8,3;
 4//1;
 5/5=2,38=5/2;
 8/6=1,10=1,107=1,108=1/1;
 9/8=1,15=2,41=1,42=1,70=2/14;
 10/5=4,31=1/2;
 6/7=2,8=2,9=2,10=2,22=-1/1;
 7/7=1,12=6,13=5,14=1,16=-2,29=1,30=1/1,2,3,16;
 1/10=7,14=-1,18=10,26=3,28=-2/3(2);
 2/15=1,29=1/2;
 99/12=1/99;
 2/15=1,29=1/2;
 3/5=5,11=9,16=1,25=1,30=1,71=1,74=-58/1,2,8,3;
 4/5=5,16=3,69=1/1;
 5/5=2,38=5/2;
 8/6=1,10=1,107=1,108=1/1;
 9/8=1,15=2,41=1,42=1,49=4,70=2/14;
 10/5=4,31=1/2;
 7/7=1,12=6,13=5,14=1,16=-2,30=1/1,2,3,16;
 1/14=-1,18=10,26=3,28=-2/3(-8);
 2/15=1,29=1/2;
 6/7=2,8=2,9=2,10=2,22=-1/1;
 99/12=1/99;
 Leave Link    1 at Mon Nov 28 12:25:01 2016, MaxMem=   805306368 cpu:         0.4
 (Enter /share/apps/gaussian/g09_D01/g09/l101.exe)
 --------------
 naphthalene222
 --------------
 Symbolic Z-matrix:
 Charge =  0 Multiplicity = 1
 C                     1.75772   0.11229   1.83796 
 C                     1.37855   0.98253   0.81503 
 C                     1.10044  -1.13597   1.99563 
 H                     2.55643   0.38837   2.51528 
 H                     1.88574   1.93492   0.70106 
 H                     1.40105  -1.8051    2.79231 
 C                     0.34392   0.65321  -0.0824 
 C                     0.07026  -1.50132   1.12807 
 H                    -0.42805  -2.45692   1.25387 
 C                    -0.34392  -0.65321   0.0824 
 C                    -0.07026   1.50132  -1.12807 
 H                     0.42806   2.45692  -1.25388 
 C                    -1.37855  -0.98253  -0.81503 
 H                    -1.88574  -1.93491  -0.70105 
 C                    -1.10043   1.13597  -1.99563 
 H                    -1.40104   1.8051   -2.79232 
 C                    -1.75772  -0.11229  -1.83796 
 H                    -2.55643  -0.38837  -2.51528 
 
 NAtoms=     18 NQM=       18 NQMF=       0 NMMI=      0 NMMIF=      0
                NMic=       0 NMicF=      0.
                    Isotopes and Nuclear Properties:
 (Nuclear quadrupole moments (NQMom) in fm**2, nuclear magnetic moments (NMagM)
  in nuclear magnetons)

  Atom         1           2           3           4           5           6           7           8           9          10
 IAtWgt=          12          12          12           1           1           1          12          12           1          12
 AtmWgt=  12.0000000  12.0000000  12.0000000   1.0078250   1.0078250   1.0078250  12.0000000  12.0000000   1.0078250  12.0000000
 NucSpn=           0           0           0           1           1           1           0           0           1           0
 AtZEff=   0.0000000   0.0000000   0.0000000   0.0000000   0.0000000   0.0000000   0.0000000   0.0000000   0.0000000   0.0000000
 NQMom=    0.0000000   0.0000000   0.0000000   0.0000000   0.0000000   0.0000000   0.0000000   0.0000000   0.0000000   0.0000000
 NMagM=    0.0000000   0.0000000   0.0000000   2.7928460   2.7928460   2.7928460   0.0000000   0.0000000   2.7928460   0.0000000
 AtZNuc=   6.0000000   6.0000000   6.0000000   1.0000000   1.0000000   1.0000000   6.0000000   6.0000000   1.0000000   6.0000000

  Atom        11          12          13          14          15          16          17          18
 IAtWgt=          12           1          12           1          12           1          12           1
 AtmWgt=  12.0000000   1.0078250  12.0000000   1.0078250  12.0000000   1.0078250  12.0000000   1.0078250
 NucSpn=           0           1           0           1           0           1           0           1
 AtZEff=   0.0000000   0.0000000   0.0000000   0.0000000   0.0000000   0.0000000   0.0000000   0.0000000
 NQMom=    0.0000000   0.0000000   0.0000000   0.0000000   0.0000000   0.0000000   0.0000000   0.0000000
 NMagM=    0.0000000   2.7928460   0.0000000   2.7928460   0.0000000   2.7928460   0.0000000   2.7928460
 AtZNuc=   6.0000000   1.0000000   6.0000000   1.0000000   6.0000000   1.0000000   6.0000000   1.0000000
 Background charge distribution read from input stream:
 Point Charges:
 XYZ=   -3.3227  -11.4312   -3.4686 Q=   -0.3927 A=    0.0000 R=    0.0000 C=    0.0000
 XYZ=   -8.2848  -17.0407   -3.5002 Q=   -0.4011 A=    0.0000 R=    0.0000 C=    0.0000
 XYZ=   -2.6144  -13.0804   -1.5479 Q=   -0.1206 A=    0.0000 R=    0.0000 C=    0.0000
 XYZ=  -11.4779  -13.9647   -4.8253 Q=   -0.1239 A=    0.0000 R=    0.0000 C=    0.0000
 XYZ=   -9.5344  -14.6699   -3.1988 Q=   -0.3990 A=    0.0000 R=    0.0000 C=    0.0000
 XYZ=   -6.3679  -13.3685  -10.1661 Q=   -0.3980 A=    0.0000 R=    0.0000 C=    0.0000
 XYZ=   -4.8591  -11.9688   -4.7633 Q=    0.2941 A=    0.0000 R=    0.0000 C=    0.0000
 XYZ=   -6.7515  -17.5806   -2.2029 Q=    0.2960 A=    0.0000 R=    0.0000 C=    0.0000
 XYZ=   -0.3961  -13.1259   -8.2634 Q=    0.3387 A=    0.0000 R=    0.0000 C=    0.0000
 XYZ=   -3.5626  -14.9124   -1.2961 Q=    0.3387 A=    0.0000 R=    0.0000 C=    0.0000
 XYZ=  -12.4525  -12.1409   -4.6042 Q=    0.3944 A=    0.0000 R=    0.0000 C=    0.0000
 XYZ=   -8.9733  -13.3829   -1.6627 Q=    0.3265 A=    0.0000 R=    0.0000 C=    0.0000
 XYZ=   -5.8068  -14.6555   -8.6301 Q=    0.3259 A=    0.0000 R=    0.0000 C=    0.0000
 XYZ=   -6.4892  -16.6072    3.4987 Q=   -0.3938 A=    0.0000 R=    0.0000 C=    0.0000
 XYZ=   -9.6556  -11.4313   10.4659 Q=   -0.3940 A=    0.0000 R=    0.0000 C=    0.0000
 XYZ=   -5.7809  -14.9580    5.4194 Q=   -0.1200 A=    0.0000 R=    0.0000 C=    0.0000
 XYZ=   -0.6318  -12.4161    0.1549 Q=   -0.3256 A=    0.0000 R=    0.0000 C=    0.0000
 XYZ=   -3.7984  -15.6222    7.1222 Q=   -0.3237 A=    0.0000 R=    0.0000 C=    0.0000
 XYZ=  -12.7010  -13.3684    3.7686 Q=   -0.3993 A=    0.0000 R=    0.0000 C=    0.0000
 XYZ=   -8.0256  -16.0696    2.2040 Q=    0.2941 A=    0.0000 R=    0.0000 C=    0.0000
 XYZ=  -11.1922  -11.9688    9.1713 Q=    0.2940 A=    0.0000 R=    0.0000 C=    0.0000
 XYZ=   -6.7292  -13.1259    5.6712 Q=    0.3391 A=    0.0000 R=    0.0000 C=    0.0000
 XYZ=   -2.5347  -18.0238    6.8123 Q=   -0.3232 A=    0.0000 R=    0.0000 C=    0.0000
 XYZ=   -3.0359  -13.9644    9.1093 Q=   -0.1098 A=    0.0000 R=    0.0000 C=    0.0000
 XYZ=   -1.0925  -14.6681   10.7347 Q=   -0.4042 A=    0.0000 R=    0.0000 C=    0.0000
 XYZ=   -0.8365  -15.9007    2.3620 Q=    0.3909 A=    0.0000 R=    0.0000 C=    0.0000
 XYZ=   -4.0030  -12.1376    9.3294 Q=    0.3911 A=    0.0000 R=    0.0000 C=    0.0000
 XYZ=   -0.5271  -13.3820   12.2698 Q=    0.3270 A=    0.0000 R=    0.0000 C=    0.0000
 XYZ=   -1.9517   -5.8253  -17.4350 Q=   -0.3976 A=    0.0000 R=    0.0000 C=    0.0000
 XYZ=  -11.0747   -1.8633  -15.4781 Q=   -0.1189 A=    0.0000 R=    0.0000 C=    0.0000
 XYZ=   -7.8217  -10.0144  -14.0915 Q=   -0.3143 A=    0.0000 R=    0.0000 C=    0.0000
 XYZ=   -3.2015   -3.4546  -17.1333 Q=   -0.3968 A=    0.0000 R=    0.0000 C=    0.0000
 XYZ=   -0.4185   -6.3652  -16.1376 Q=    0.2958 A=    0.0000 R=    0.0000 C=    0.0000
 XYZ=   -6.1194   -0.9256  -18.5386 Q=    0.3944 A=    0.0000 R=    0.0000 C=    0.0000
 XYZ=   -7.6214   -6.5333  -16.2978 Q=    0.3945 A=    0.0000 R=    0.0000 C=    0.0000
 XYZ=   -2.6403   -2.1675  -15.5973 Q=    0.3262 A=    0.0000 R=    0.0000 C=    0.0000
 XYZ=   -0.1384   -5.3961  -10.4160 Q=   -0.3854 A=    0.0000 R=    0.0000 C=    0.0000
 XYZ=  -14.9556   -5.3900  -10.4344 Q=   -0.4007 A=    0.0000 R=    0.0000 C=    0.0000
 XYZ=   -8.2848   -5.8253   -3.5002 Q=   -0.4011 A=    0.0000 R=    0.0000 C=    0.0000
 XYZ=  -18.1222   -0.2176   -3.4670 Q=   -0.4003 A=    0.0000 R=    0.0000 C=    0.0000
 XYZ=   -5.1182  -10.9977  -10.4677 Q=   -0.4018 A=    0.0000 R=    0.0000 C=    0.0000
 XYZ=  -14.2412   -3.7444   -8.5108 Q=   -0.1186 A=    0.0000 R=    0.0000 C=    0.0000
 XYZ=   -8.9992   -7.4710   -5.4238 Q=   -0.1187 A=    0.0000 R=    0.0000 C=    0.0000
 XYZ=  -17.4078   -1.8633   -1.5435 Q=   -0.1230 A=    0.0000 R=    0.0000 C=    0.0000
 XYZ=   -5.8326   -9.3520  -12.3912 Q=   -0.1168 A=    0.0000 R=    0.0000 C=    0.0000
 XYZ=  -12.2523   -4.4068   -6.8103 Q=   -0.3156 A=    0.0000 R=    0.0000 C=    0.0000
 XYZ=  -10.9881   -6.8086   -7.1244 Q=   -0.3153 A=    0.0000 R=    0.0000 C=    0.0000
 XYZ=   -9.0858   -1.2009  -13.7775 Q=   -0.3138 A=    0.0000 R=    0.0000 C=    0.0000
 XYZ=  -14.1546  -10.0144   -0.1571 Q=   -0.3172 A=    0.0000 R=    0.0000 C=    0.0000
 XYZ=   -0.1305   -8.3567   -2.1421 Q=   -0.1067 A=    0.0000 R=    0.0000 C=    0.0000
 XYZ=  -11.4779   -2.7493   -4.8253 Q=   -0.1231 A=    0.0000 R=    0.0000 C=    0.0000
 XYZ=  -11.7625   -8.4660   -9.1093 Q=   -0.1238 A=    0.0000 R=    0.0000 C=    0.0000
 XYZ=   -8.3113   -2.8584  -11.7926 Q=   -0.1256 A=    0.0000 R=    0.0000 C=    0.0000
 XYZ=  -14.9291   -8.3569   -2.1420 Q=   -0.1229 A=    0.0000 R=    0.0000 C=    0.0000
 XYZ=   -2.0741   -9.0604   -3.7673 Q=   -0.4038 A=    0.0000 R=    0.0000 C=    0.0000
 XYZ=   -9.5344   -3.4545   -3.1988 Q=   -0.3990 A=    0.0000 R=    0.0000 C=    0.0000
 XYZ=  -13.7060   -7.7608  -10.7358 Q=   -0.3989 A=    0.0000 R=    0.0000 C=    0.0000
 XYZ=   -6.3679   -2.1531  -10.1661 Q=   -0.3984 A=    0.0000 R=    0.0000 C=    0.0000
 XYZ=  -16.8725   -9.0622   -3.7685 Q=   -0.3991 A=    0.0000 R=    0.0000 C=    0.0000
 XYZ=   -1.6731   -4.8609  -11.7141 Q=    0.2962 A=    0.0000 R=    0.0000 C=    0.0000
 XYZ=   -6.7515   -6.3652   -2.2029 Q=    0.2958 A=    0.0000 R=    0.0000 C=    0.0000
 XYZ=   -3.5850  -10.4578   -9.1703 Q=    0.2960 A=    0.0000 R=    0.0000 C=    0.0000
 XYZ=   -0.3983   -1.9061   -8.2627 Q=    0.3355 A=    0.0000 R=    0.0000 C=    0.0000
 XYZ=  -15.1857   -1.9093   -8.2637 Q=    0.3405 A=    0.0000 R=    0.0000 C=    0.0000
 XYZ=   -8.0547   -9.3060   -5.6709 Q=    0.3406 A=    0.0000 R=    0.0000 C=    0.0000
 XYZ=  -18.3522   -3.6984   -1.2965 Q=    0.3416 A=    0.0000 R=    0.0000 C=    0.0000
 XYZ=   -4.8882   -7.5169  -12.6381 Q=    0.3398 A=    0.0000 R=    0.0000 C=    0.0000
 XYZ=  -12.4525   -0.9256   -4.6042 Q=    0.3943 A=    0.0000 R=    0.0000 C=    0.0000
 XYZ=  -10.7879  -10.2898   -9.3304 Q=    0.3944 A=    0.0000 R=    0.0000 C=    0.0000
 XYZ=   -9.2860   -4.6821  -11.5715 Q=    0.3942 A=    0.0000 R=    0.0000 C=    0.0000
 XYZ=  -13.9544   -6.5332   -2.3632 Q=    0.3949 A=    0.0000 R=    0.0000 C=    0.0000
 XYZ=   -2.6394   -7.7743   -5.3025 Q=    0.3257 A=    0.0000 R=    0.0000 C=    0.0000
 XYZ=   -8.9733   -2.1675   -1.6627 Q=    0.3266 A=    0.0000 R=    0.0000 C=    0.0000
 XYZ=   -5.8068   -3.4401   -8.6301 Q=    0.3254 A=    0.0000 R=    0.0000 C=    0.0000
 XYZ=   -6.4892   -5.3918    3.4987 Q=   -0.3936 A=    0.0000 R=    0.0000 C=    0.0000
 XYZ=   -9.6556   -0.2159   10.4659 Q=   -0.3944 A=    0.0000 R=    0.0000 C=    0.0000
 XYZ=  -14.6178   -5.8253   10.4342 Q=   -0.3976 A=    0.0000 R=    0.0000 C=    0.0000
 XYZ=  -11.4513  -10.9977    3.4671 Q=   -0.4007 A=    0.0000 R=    0.0000 C=    0.0000
 XYZ=   -5.7809   -3.7427    5.4194 Q=   -0.1202 A=    0.0000 R=    0.0000 C=    0.0000
 XYZ=   -8.9474   -1.8650   12.3866 Q=   -0.1194 A=    0.0000 R=    0.0000 C=    0.0000
 XYZ=  -15.3322   -7.4710    8.5107 Q=   -0.1230 A=    0.0000 R=    0.0000 C=    0.0000
 XYZ=  -12.1657   -9.3520    1.5435 Q=   -0.1188 A=    0.0000 R=    0.0000 C=    0.0000
 XYZ=   -3.7984   -4.4069    7.1222 Q=   -0.3238 A=    0.0000 R=    0.0000 C=    0.0000
 XYZ=  -15.4187   -1.2010    0.1569 Q=   -0.3176 A=    0.0000 R=    0.0000 C=    0.0000
 XYZ=   -3.2971   -8.4663    4.8253 Q=   -0.1097 A=    0.0000 R=    0.0000 C=    0.0000
 XYZ=   -6.4636   -8.3568   11.7926 Q=   -0.1104 A=    0.0000 R=    0.0000 C=    0.0000
 XYZ=  -14.6443   -2.8583    2.1420 Q=   -0.1210 A=    0.0000 R=    0.0000 C=    0.0000
 XYZ=   -5.2405   -7.7626    3.1999 Q=   -0.4041 A=    0.0000 R=    0.0000 C=    0.0000
 XYZ=   -8.4070   -9.0604   10.1671 Q=   -0.4046 A=    0.0000 R=    0.0000 C=    0.0000
 XYZ=  -12.7010   -2.1531    3.7686 Q=   -0.4003 A=    0.0000 R=    0.0000 C=    0.0000
 XYZ=  -15.8675   -3.4546   10.7359 Q=   -0.3968 A=    0.0000 R=    0.0000 C=    0.0000
 XYZ=   -8.0256   -4.8542    2.2040 Q=    0.2941 A=    0.0000 R=    0.0000 C=    0.0000
 XYZ=  -11.1922   -0.7535    9.1713 Q=    0.2940 A=    0.0000 R=    0.0000 C=    0.0000
 XYZ=  -13.0846   -6.3652   11.7316 Q=    0.2958 A=    0.0000 R=    0.0000 C=    0.0000
 XYZ=   -9.9180  -10.4578    4.7643 Q=    0.2956 A=    0.0000 R=    0.0000 C=    0.0000
 XYZ=   -6.7292   -1.9106    5.6712 Q=    0.3391 A=    0.0000 R=    0.0000 C=    0.0000
 XYZ=   -9.8957   -3.6970   12.6385 Q=    0.3392 A=    0.0000 R=    0.0000 C=    0.0000
 XYZ=  -14.3878   -9.3061    8.2638 Q=    0.3400 A=    0.0000 R=    0.0000 C=    0.0000
 XYZ=  -11.2212   -7.5170    1.2964 Q=    0.3407 A=    0.0000 R=    0.0000 C=    0.0000
 XYZ=   -2.3301  -10.2931    4.6052 Q=    0.3911 A=    0.0000 R=    0.0000 C=    0.0000
 XYZ=   -5.4966   -6.5300   11.5725 Q=    0.3910 A=    0.0000 R=    0.0000 C=    0.0000
 XYZ=  -15.6190   -4.6821    2.3632 Q=    0.3951 A=    0.0000 R=    0.0000 C=    0.0000
 XYZ=   -5.8059   -9.0487    1.6648 Q=    0.3269 A=    0.0000 R=    0.0000 C=    0.0000
 XYZ=   -8.9724   -7.7743    8.6320 Q=    0.3275 A=    0.0000 R=    0.0000 C=    0.0000
 XYZ=  -12.1398   -3.4401    5.3046 Q=    0.3270 A=    0.0000 R=    0.0000 C=    0.0000
 XYZ=   -0.5521   -7.4727    8.5152 Q=   -0.1202 A=    0.0000 R=    0.0000 C=    0.0000
 XYZ=   -2.5347   -6.8084    6.8123 Q=   -0.3235 A=    0.0000 R=    0.0000 C=    0.0000
 XYZ=   -5.7012  -10.0145   13.7797 Q=   -0.3234 A=    0.0000 R=    0.0000 C=    0.0000
 XYZ=   -3.0359   -2.7491    9.1093 Q=   -0.1097 A=    0.0000 R=    0.0000 C=    0.0000
 XYZ=   -1.0925   -3.4528   10.7347 Q=   -0.4041 A=    0.0000 R=    0.0000 C=    0.0000
 XYZ=   -4.0030   -0.9223    9.3294 Q=    0.3911 A=    0.0000 R=    0.0000 C=    0.0000
 XYZ=   -0.5271   -2.1666   12.2698 Q=    0.3270 A=    0.0000 R=    0.0000 C=    0.0000
 XYZ=   -6.9650   -1.2007   14.0897 Q=   -0.3253 A=    0.0000 R=    0.0000 C=    0.0000
 XYZ=   -3.7186   -9.3503   15.4825 Q=   -0.1183 A=    0.0000 R=    0.0000 C=    0.0000
 XYZ=   -6.2025   -2.8586   16.0766 Q=   -0.1112 A=    0.0000 R=    0.0000 C=    0.0000
 XYZ=   -4.2590   -2.1549   17.7019 Q=   -0.4047 A=    0.0000 R=    0.0000 C=    0.0000
 XYZ=   -2.7704   -7.5182   15.2307 Q=    0.3388 A=    0.0000 R=    0.0000 C=    0.0000
 XYZ=   -7.1695   -4.6854   16.2966 Q=    0.3916 A=    0.0000 R=    0.0000 C=    0.0000
 XYZ=   -1.9517    5.3901  -17.4350 Q=   -0.4003 A=    0.0000 R=    0.0000 C=    0.0000
 XYZ=   -7.8217    1.2010  -14.0915 Q=   -0.3149 A=    0.0000 R=    0.0000 C=    0.0000
 XYZ=   -8.5961    2.8583  -16.0766 Q=   -0.1232 A=    0.0000 R=    0.0000 C=    0.0000
 XYZ=   -3.2015    7.7608  -17.1333 Q=   -0.3986 A=    0.0000 R=    0.0000 C=    0.0000
 XYZ=   -0.4185    4.8501  -16.1376 Q=    0.2959 A=    0.0000 R=    0.0000 C=    0.0000
 XYZ=   -7.6214    4.6821  -16.2978 Q=    0.3947 A=    0.0000 R=    0.0000 C=    0.0000
 XYZ=   -2.6403    9.0478  -15.5973 Q=    0.3266 A=    0.0000 R=    0.0000 C=    0.0000
 XYZ=   -0.1561    5.8236  -10.4361 Q=   -0.3930 A=    0.0000 R=    0.0000 C=    0.0000
 XYZ=   -3.3227   10.9994   -3.4686 Q=   -0.3927 A=    0.0000 R=    0.0000 C=    0.0000
 XYZ=   -5.1182    0.2176  -10.4677 Q=   -0.3990 A=    0.0000 R=    0.0000 C=    0.0000
 XYZ=  -14.9556    5.8254  -10.4344 Q=   -0.4008 A=    0.0000 R=    0.0000 C=    0.0000
 XYZ=   -8.2848    5.3900   -3.5002 Q=   -0.4011 A=    0.0000 R=    0.0000 C=    0.0000
 XYZ=   -2.6144    9.3503   -1.5479 Q=   -0.1206 A=    0.0000 R=    0.0000 C=    0.0000
 XYZ=   -5.8326    1.8633  -12.3912 Q=   -0.1204 A=    0.0000 R=    0.0000 C=    0.0000
 XYZ=  -14.2412    7.4710   -8.5108 Q=   -0.1187 A=    0.0000 R=    0.0000 C=    0.0000
 XYZ=   -8.9992    3.7444   -5.4238 Q=   -0.1185 A=    0.0000 R=    0.0000 C=    0.0000
 XYZ=  -14.1546    1.2009   -0.1571 Q=   -0.3147 A=    0.0000 R=    0.0000 C=    0.0000
 XYZ=  -12.2523    6.8086   -6.8103 Q=   -0.3153 A=    0.0000 R=    0.0000 C=    0.0000
 XYZ=  -10.9881    4.4068   -7.1244 Q=   -0.3153 A=    0.0000 R=    0.0000 C=    0.0000
 XYZ=   -9.0858   10.0144  -13.7775 Q=   -0.3173 A=    0.0000 R=    0.0000 C=    0.0000
 XYZ=  -14.9291    2.8584   -2.1420 Q=   -0.1224 A=    0.0000 R=    0.0000 C=    0.0000
 XYZ=  -11.4779    8.4660   -4.8253 Q=   -0.1239 A=    0.0000 R=    0.0000 C=    0.0000
 XYZ=  -11.7625    2.7493   -9.1093 Q=   -0.1236 A=    0.0000 R=    0.0000 C=    0.0000
 XYZ=   -8.3113    8.3570  -11.7926 Q=   -0.1237 A=    0.0000 R=    0.0000 C=    0.0000
 XYZ=  -16.8725    2.1531   -3.7685 Q=   -0.3979 A=    0.0000 R=    0.0000 C=    0.0000
 XYZ=   -9.5344    7.7608   -3.1988 Q=   -0.3990 A=    0.0000 R=    0.0000 C=    0.0000
 XYZ=  -13.7060    3.4545  -10.7358 Q=   -0.3987 A=    0.0000 R=    0.0000 C=    0.0000
 XYZ=   -6.3679    9.0622  -10.1661 Q=   -0.3980 A=    0.0000 R=    0.0000 C=    0.0000
 XYZ=   -1.6926    6.3611  -11.7306 Q=    0.2939 A=    0.0000 R=    0.0000 C=    0.0000
 XYZ=   -4.8591   10.4619   -4.7633 Q=    0.2941 A=    0.0000 R=    0.0000 C=    0.0000
 XYZ=   -3.5850    0.7576   -9.1703 Q=    0.2964 A=    0.0000 R=    0.0000 C=    0.0000
 XYZ=   -6.7515    4.8501   -2.2029 Q=    0.2960 A=    0.0000 R=    0.0000 C=    0.0000
 XYZ=   -0.3961    9.3047   -8.2634 Q=    0.3387 A=    0.0000 R=    0.0000 C=    0.0000
 XYZ=   -3.5626    7.5182   -1.2961 Q=    0.3387 A=    0.0000 R=    0.0000 C=    0.0000
 XYZ=   -4.8882    3.6984  -12.6381 Q=    0.3400 A=    0.0000 R=    0.0000 C=    0.0000
 XYZ=   -8.0547    1.9093   -5.6709 Q=    0.3406 A=    0.0000 R=    0.0000 C=    0.0000
 XYZ=  -13.9544    4.6821   -2.3632 Q=    0.3946 A=    0.0000 R=    0.0000 C=    0.0000
 XYZ=  -12.4525   10.2898   -4.6042 Q=    0.3944 A=    0.0000 R=    0.0000 C=    0.0000
 XYZ=  -10.7879    0.9256   -9.3304 Q=    0.3944 A=    0.0000 R=    0.0000 C=    0.0000
 XYZ=   -9.2860    6.5332  -11.5715 Q=    0.3944 A=    0.0000 R=    0.0000 C=    0.0000
 XYZ=  -17.4336    3.4401   -5.3046 Q=    0.3264 A=    0.0000 R=    0.0000 C=    0.0000
 XYZ=   -8.9733    9.0478   -1.6627 Q=    0.3265 A=    0.0000 R=    0.0000 C=    0.0000
 XYZ=  -14.2671    2.1675  -12.2719 Q=    0.3266 A=    0.0000 R=    0.0000 C=    0.0000
 XYZ=   -5.8068    7.7752   -8.6301 Q=    0.3259 A=    0.0000 R=    0.0000 C=    0.0000
 XYZ=   -6.4892    5.8235    3.4987 Q=   -0.3938 A=    0.0000 R=    0.0000 C=    0.0000
 XYZ=   -9.6556   10.9994   10.4659 Q=   -0.3940 A=    0.0000 R=    0.0000 C=    0.0000
 XYZ=  -11.4513    0.2176    3.4671 Q=   -0.4000 A=    0.0000 R=    0.0000 C=    0.0000
 XYZ=  -14.6178    5.3901   10.4342 Q=   -0.4003 A=    0.0000 R=    0.0000 C=    0.0000
 XYZ=   -5.7809    7.4727    5.4194 Q=   -0.1200 A=    0.0000 R=    0.0000 C=    0.0000
 XYZ=   -8.9474    9.3503   12.3866 Q=   -0.1191 A=    0.0000 R=    0.0000 C=    0.0000
 XYZ=  -12.1657    1.8633    1.5435 Q=   -0.1203 A=    0.0000 R=    0.0000 C=    0.0000
 XYZ=  -15.3322    3.7444    8.5107 Q=   -0.1194 A=    0.0000 R=    0.0000 C=    0.0000
 XYZ=   -0.6318   10.0145    0.1549 Q=   -0.3256 A=    0.0000 R=    0.0000 C=    0.0000
 XYZ=   -3.7984    6.8084    7.1222 Q=   -0.3237 A=    0.0000 R=    0.0000 C=    0.0000
 XYZ=  -15.4187   10.0144    0.1569 Q=   -0.3167 A=    0.0000 R=    0.0000 C=    0.0000
 XYZ=  -17.3212    4.4067    6.8103 Q=   -0.3162 A=    0.0000 R=    0.0000 C=    0.0000
 XYZ=   -6.4636    2.8586   11.7926 Q=   -0.1109 A=    0.0000 R=    0.0000 C=    0.0000
 XYZ=   -3.2971    2.7491    4.8253 Q=   -0.1100 A=    0.0000 R=    0.0000 C=    0.0000
 XYZ=  -14.6443    8.3570    2.1420 Q=   -0.1228 A=    0.0000 R=    0.0000 C=    0.0000
 XYZ=  -18.0957    2.7493    4.8253 Q=   -0.1229 A=    0.0000 R=    0.0000 C=    0.0000
 XYZ=   -8.4070    2.1549   10.1671 Q=   -0.4044 A=    0.0000 R=    0.0000 C=    0.0000
 XYZ=   -5.2405    3.4528    3.1999 Q=   -0.4039 A=    0.0000 R=    0.0000 C=    0.0000
 XYZ=  -12.7010    9.0622    3.7686 Q=   -0.3993 A=    0.0000 R=    0.0000 C=    0.0000
 XYZ=   -8.0256    6.3611    2.2040 Q=    0.2941 A=    0.0000 R=    0.0000 C=    0.0000
 XYZ=  -11.1922   10.4619    9.1713 Q=    0.2940 A=    0.0000 R=    0.0000 C=    0.0000
 XYZ=   -9.9180    0.7576    4.7643 Q=    0.2957 A=    0.0000 R=    0.0000 C=    0.0000
 XYZ=  -13.0846    4.8501   11.7316 Q=    0.2959 A=    0.0000 R=    0.0000 C=    0.0000
 XYZ=   -6.7292    9.3048    5.6712 Q=    0.3391 A=    0.0000 R=    0.0000 C=    0.0000
 XYZ=   -9.8957    7.5183   12.6385 Q=    0.3394 A=    0.0000 R=    0.0000 C=    0.0000
 XYZ=  -11.2212    3.6983    1.2964 Q=    0.3408 A=    0.0000 R=    0.0000 C=    0.0000
 XYZ=  -14.3878    1.9093    8.2638 Q=    0.3404 A=    0.0000 R=    0.0000 C=    0.0000
 XYZ=   -5.4966    4.6854   11.5725 Q=    0.3911 A=    0.0000 R=    0.0000 C=    0.0000
 XYZ=   -2.3301    0.9223    4.6052 Q=    0.3910 A=    0.0000 R=    0.0000 C=    0.0000
 XYZ=  -15.6190    6.5333    2.3632 Q=    0.3946 A=    0.0000 R=    0.0000 C=    0.0000
 XYZ=  -17.1210    0.9256    4.6040 Q=    0.3947 A=    0.0000 R=    0.0000 C=    0.0000
 XYZ=   -8.9724    3.4410    8.6320 Q=    0.3275 A=    0.0000 R=    0.0000 C=    0.0000
 XYZ=   -5.8059    2.1666    1.6648 Q=    0.3269 A=    0.0000 R=    0.0000 C=    0.0000
 XYZ=  -12.1398    7.7752    5.3046 Q=    0.3271 A=    0.0000 R=    0.0000 C=    0.0000
 XYZ=   -0.5521    3.7427    8.5152 Q=   -0.1203 A=    0.0000 R=    0.0000 C=    0.0000
 XYZ=   -5.7012    1.2008   13.7797 Q=   -0.3217 A=    0.0000 R=    0.0000 C=    0.0000
 XYZ=   -2.5347    4.4069    6.8123 Q=   -0.3232 A=    0.0000 R=    0.0000 C=    0.0000
 XYZ=   -3.0359    8.4663    9.1093 Q=   -0.1098 A=    0.0000 R=    0.0000 C=    0.0000
 XYZ=   -1.0925    7.7626   10.7347 Q=   -0.4042 A=    0.0000 R=    0.0000 C=    0.0000
 XYZ=   -0.8365    6.5300    2.3620 Q=    0.3909 A=    0.0000 R=    0.0000 C=    0.0000
 XYZ=   -4.0030   10.2931    9.3294 Q=    0.3911 A=    0.0000 R=    0.0000 C=    0.0000
 XYZ=   -0.5271    9.0487   12.2698 Q=    0.3270 A=    0.0000 R=    0.0000 C=    0.0000
 XYZ=   -6.9650   10.0146   14.0897 Q=   -0.3239 A=    0.0000 R=    0.0000 C=    0.0000
 XYZ=   -3.0104    0.2159   17.4032 Q=   -0.3941 A=    0.0000 R=    0.0000 C=    0.0000
 XYZ=   -3.7186    1.8650   15.4825 Q=   -0.1190 A=    0.0000 R=    0.0000 C=    0.0000
 XYZ=   -6.2025    8.3567   16.0766 Q=   -0.1105 A=    0.0000 R=    0.0000 C=    0.0000
 XYZ=   -1.4739    0.7534   18.6979 Q=    0.2943 A=    0.0000 R=    0.0000 C=    0.0000
 XYZ=   -2.7704    3.6971   15.2307 Q=    0.3389 A=    0.0000 R=    0.0000 C=    0.0000
 XYZ=   -7.1695    6.5299   16.2966 Q=    0.3908 A=    0.0000 R=    0.0000 C=    0.0000
 XYZ=   -8.2848   16.6053   -3.5002 Q=   -0.4011 A=    0.0000 R=    0.0000 C=    0.0000
 XYZ=   -5.1182   11.4330  -10.4677 Q=   -0.4018 A=    0.0000 R=    0.0000 C=    0.0000
 XYZ=   -8.9992   14.9597   -5.4238 Q=   -0.1187 A=    0.0000 R=    0.0000 C=    0.0000
 XYZ=   -5.8326   13.0787  -12.3912 Q=   -0.1168 A=    0.0000 R=    0.0000 C=    0.0000
 XYZ=  -14.1546   12.4162   -0.1571 Q=   -0.3172 A=    0.0000 R=    0.0000 C=    0.0000
 XYZ=   -0.1305   14.0739   -2.1421 Q=   -0.1067 A=    0.0000 R=    0.0000 C=    0.0000
 XYZ=   -2.0741   13.3703   -3.7673 Q=   -0.4038 A=    0.0000 R=    0.0000 C=    0.0000
 XYZ=   -6.7515   16.0655   -2.2029 Q=    0.2958 A=    0.0000 R=    0.0000 C=    0.0000
 XYZ=   -3.5850   11.9729   -9.1703 Q=    0.2960 A=    0.0000 R=    0.0000 C=    0.0000
 XYZ=   -3.5626   18.7336   -1.2961 Q=    0.3387 A=    0.0000 R=    0.0000 C=    0.0000
 XYZ=   -8.0547   13.1247   -5.6709 Q=    0.3406 A=    0.0000 R=    0.0000 C=    0.0000
 XYZ=  -10.7879   12.1409   -9.3304 Q=    0.3944 A=    0.0000 R=    0.0000 C=    0.0000
 XYZ=   -2.6394   14.6564   -5.3025 Q=    0.3257 A=    0.0000 R=    0.0000 C=    0.0000
 XYZ=   -6.4892   17.0389    3.4987 Q=   -0.3936 A=    0.0000 R=    0.0000 C=    0.0000
 XYZ=  -11.4513   11.4330    3.4671 Q=   -0.4007 A=    0.0000 R=    0.0000 C=    0.0000
 XYZ=  -12.1657   13.0787    1.5435 Q=   -0.1188 A=    0.0000 R=    0.0000 C=    0.0000
 XYZ=   -3.2971   13.9644    4.8253 Q=   -0.1097 A=    0.0000 R=    0.0000 C=    0.0000
 XYZ=   -6.4636   14.0739   11.7926 Q=   -0.1104 A=    0.0000 R=    0.0000 C=    0.0000
 XYZ=   -5.2405   14.6681    3.1999 Q=   -0.4041 A=    0.0000 R=    0.0000 C=    0.0000
 XYZ=   -8.4070   13.3703   10.1671 Q=   -0.4046 A=    0.0000 R=    0.0000 C=    0.0000
 XYZ=   -8.0256   17.5764    2.2040 Q=    0.2941 A=    0.0000 R=    0.0000 C=    0.0000
 XYZ=   -9.9180   11.9729    4.7643 Q=    0.2956 A=    0.0000 R=    0.0000 C=    0.0000
 XYZ=  -11.2212   14.9137    1.2964 Q=    0.3407 A=    0.0000 R=    0.0000 C=    0.0000
 XYZ=   -2.3301   12.1376    4.6052 Q=    0.3911 A=    0.0000 R=    0.0000 C=    0.0000
 XYZ=   -5.8059   13.3820    1.6648 Q=    0.3269 A=    0.0000 R=    0.0000 C=    0.0000
 XYZ=   -8.9724   14.6564    8.6320 Q=    0.3275 A=    0.0000 R=    0.0000 C=    0.0000
 XYZ=   -0.5521   14.9580    8.5152 Q=   -0.1202 A=    0.0000 R=    0.0000 C=    0.0000
 XYZ=   -2.5347   15.6222    6.8123 Q=   -0.3235 A=    0.0000 R=    0.0000 C=    0.0000
 XYZ=   -5.7012   12.4161   13.7797 Q=   -0.3234 A=    0.0000 R=    0.0000 C=    0.0000
 XYZ=   -0.8365   17.7453    2.3620 Q=    0.3907 A=    0.0000 R=    0.0000 C=    0.0000
 XYZ=    0.5521  -14.9580   -8.5153 Q=   -0.1217 A=    0.0000 R=    0.0000 C=    0.0000
 XYZ=    2.5346  -15.6223   -6.8123 Q=   -0.3192 A=    0.0000 R=    0.0000 C=    0.0000
 XYZ=    5.7011  -12.4160  -13.7795 Q=   -0.3239 A=    0.0000 R=    0.0000 C=    0.0000
 XYZ=    0.8365  -17.7452   -2.3620 Q=    0.3908 A=    0.0000 R=    0.0000 C=    0.0000
 XYZ=    6.4891  -17.0389   -3.4985 Q=   -0.3940 A=    0.0000 R=    0.0000 C=    0.0000
 XYZ=   11.4513  -11.4330   -3.4670 Q=   -0.4028 A=    0.0000 R=    0.0000 C=    0.0000
 XYZ=   12.1657  -13.0787   -1.5435 Q=   -0.1160 A=    0.0000 R=    0.0000 C=    0.0000
 XYZ=    3.2970  -13.9644   -4.8252 Q=   -0.1093 A=    0.0000 R=    0.0000 C=    0.0000
 XYZ=    6.4636  -14.0739  -11.7926 Q=   -0.1105 A=    0.0000 R=    0.0000 C=    0.0000
 XYZ=    5.2406  -14.6680   -3.2000 Q=   -0.4049 A=    0.0000 R=    0.0000 C=    0.0000
 XYZ=    8.4071  -13.3703  -10.1673 Q=   -0.4033 A=    0.0000 R=    0.0000 C=    0.0000
 XYZ=    8.0257  -17.5764   -2.2040 Q=    0.2943 A=    0.0000 R=    0.0000 C=    0.0000
 XYZ=    9.9181  -11.9729   -4.7643 Q=    0.2954 A=    0.0000 R=    0.0000 C=    0.0000
 XYZ=   11.2212  -14.9137   -1.2965 Q=    0.3405 A=    0.0000 R=    0.0000 C=    0.0000
 XYZ=    2.3300  -12.1376   -4.6054 Q=    0.3901 A=    0.0000 R=    0.0000 C=    0.0000
 XYZ=    5.8059  -13.3820   -1.6648 Q=    0.3272 A=    0.0000 R=    0.0000 C=    0.0000
 XYZ=    8.9725  -14.6564   -8.6321 Q=    0.3267 A=    0.0000 R=    0.0000 C=    0.0000
 XYZ=    8.2847  -16.6054    3.5004 Q=   -0.4004 A=    0.0000 R=    0.0000 C=    0.0000
 XYZ=    5.1183  -11.4330   10.4675 Q=   -0.4010 A=    0.0000 R=    0.0000 C=    0.0000
 XYZ=    8.9992  -14.9597    5.4239 Q=   -0.1194 A=    0.0000 R=    0.0000 C=    0.0000
 XYZ=    5.8327  -13.0787   12.3911 Q=   -0.1183 A=    0.0000 R=    0.0000 C=    0.0000
 XYZ=   14.1547  -12.4163    0.1569 Q=   -0.3167 A=    0.0000 R=    0.0000 C=    0.0000
 XYZ=    0.1306  -14.0739    2.1420 Q=   -0.1092 A=    0.0000 R=    0.0000 C=    0.0000
 XYZ=    2.0740  -13.3703    3.7674 Q=   -0.4053 A=    0.0000 R=    0.0000 C=    0.0000
 XYZ=    6.7516  -16.0655    2.2030 Q=    0.2958 A=    0.0000 R=    0.0000 C=    0.0000
 XYZ=    3.5850  -11.9729    9.1702 Q=    0.2957 A=    0.0000 R=    0.0000 C=    0.0000
 XYZ=    3.5626  -18.7336    1.2961 Q=    0.3393 A=    0.0000 R=    0.0000 C=    0.0000
 XYZ=    8.0547  -13.1246    5.6708 Q=    0.3405 A=    0.0000 R=    0.0000 C=    0.0000
 XYZ=   10.7879  -12.1409    9.3305 Q=    0.3947 A=    0.0000 R=    0.0000 C=    0.0000
 XYZ=    2.6394  -14.6564    5.3025 Q=    0.3276 A=    0.0000 R=    0.0000 C=    0.0000
 XYZ=    3.0104   -0.2159  -17.4033 Q=   -0.3944 A=    0.0000 R=    0.0000 C=    0.0000
 XYZ=    3.7187   -1.8650  -15.4826 Q=   -0.1194 A=    0.0000 R=    0.0000 C=    0.0000
 XYZ=    6.2025   -8.3568  -16.0766 Q=   -0.1104 A=    0.0000 R=    0.0000 C=    0.0000
 XYZ=    1.4739   -0.7535  -18.6979 Q=    0.2940 A=    0.0000 R=    0.0000 C=    0.0000
 XYZ=    2.7704   -3.6970  -15.2307 Q=    0.3392 A=    0.0000 R=    0.0000 C=    0.0000
 XYZ=    7.1695   -6.5300  -16.2966 Q=    0.3910 A=    0.0000 R=    0.0000 C=    0.0000
 XYZ=    6.9649  -10.0145  -14.0895 Q=   -0.3234 A=    0.0000 R=    0.0000 C=    0.0000
 XYZ=    0.5578   -3.7355   -8.5040 Q=   -0.1256 A=    0.0000 R=    0.0000 C=    0.0000
 XYZ=    2.5399   -4.4064   -6.8061 Q=   -0.3134 A=    0.0000 R=    0.0000 C=    0.0000
 XYZ=    5.7011   -1.2007  -13.7795 Q=   -0.3253 A=    0.0000 R=    0.0000 C=    0.0000
 XYZ=    3.0411   -8.4713   -9.1074 Q=   -0.1088 A=    0.0000 R=    0.0000 C=    0.0000
 XYZ=    1.0984   -7.7698  -10.7331 Q=   -0.4083 A=    0.0000 R=    0.0000 C=    0.0000
 XYZ=    4.0063  -10.2982   -9.3293 Q=    0.3883 A=    0.0000 R=    0.0000 C=    0.0000
 XYZ=    0.8365   -6.5299   -2.3620 Q=    0.3901 A=    0.0000 R=    0.0000 C=    0.0000
 XYZ=    0.5264   -9.0502  -12.2716 Q=    0.3259 A=    0.0000 R=    0.0000 C=    0.0000
 XYZ=    6.4896   -5.8242   -3.4984 Q=   -0.3993 A=    0.0000 R=    0.0000 C=    0.0000
 XYZ=    9.6557  -10.9994  -10.4660 Q=   -0.3950 A=    0.0000 R=    0.0000 C=    0.0000
 XYZ=   14.6178   -5.3900  -10.4344 Q=   -0.4007 A=    0.0000 R=    0.0000 C=    0.0000
 XYZ=   11.4513   -0.2176   -3.4670 Q=   -0.4003 A=    0.0000 R=    0.0000 C=    0.0000
 XYZ=    5.7816   -7.4734   -5.4190 Q=   -0.1178 A=    0.0000 R=    0.0000 C=    0.0000
 XYZ=    8.9474   -9.3503  -12.3867 Q=   -0.1183 A=    0.0000 R=    0.0000 C=    0.0000
 XYZ=   15.3322   -3.7444   -8.5108 Q=   -0.1186 A=    0.0000 R=    0.0000 C=    0.0000
 XYZ=   12.1657   -1.8633   -1.5435 Q=   -0.1230 A=    0.0000 R=    0.0000 C=    0.0000
 XYZ=    3.7996   -6.8094   -7.1218 Q=   -0.3231 A=    0.0000 R=    0.0000 C=    0.0000
 XYZ=    0.6320  -10.0146   -0.1551 Q=   -0.3233 A=    0.0000 R=    0.0000 C=    0.0000
 XYZ=   17.3211   -4.4068   -6.8103 Q=   -0.3156 A=    0.0000 R=    0.0000 C=    0.0000
 XYZ=   15.4189  -10.0144   -0.1571 Q=   -0.3172 A=    0.0000 R=    0.0000 C=    0.0000
 XYZ=    3.2986   -2.7460   -4.8213 Q=   -0.1155 A=    0.0000 R=    0.0000 C=    0.0000
 XYZ=    6.4636   -2.8586  -11.7926 Q=   -0.1112 A=    0.0000 R=    0.0000 C=    0.0000
 XYZ=   18.0956   -2.7493   -4.8253 Q=   -0.1231 A=    0.0000 R=    0.0000 C=    0.0000
 XYZ=   14.6443   -8.3569   -2.1420 Q=   -0.1229 A=    0.0000 R=    0.0000 C=    0.0000
 XYZ=    5.2422   -3.4529   -3.1985 Q=   -0.4038 A=    0.0000 R=    0.0000 C=    0.0000
 XYZ=    8.4071   -2.1549  -10.1673 Q=   -0.4047 A=    0.0000 R=    0.0000 C=    0.0000
 XYZ=   12.7009   -9.0622   -3.7685 Q=   -0.3991 A=    0.0000 R=    0.0000 C=    0.0000
 XYZ=    8.0260   -6.3612   -2.2036 Q=    0.2961 A=    0.0000 R=    0.0000 C=    0.0000
 XYZ=   11.1921  -10.4619   -9.1713 Q=    0.2947 A=    0.0000 R=    0.0000 C=    0.0000
 XYZ=   13.0846   -4.8501  -11.7317 Q=    0.2959 A=    0.0000 R=    0.0000 C=    0.0000
 XYZ=    9.9181   -0.7576   -4.7643 Q=    0.2965 A=    0.0000 R=    0.0000 C=    0.0000
 XYZ=    6.7294   -9.3054   -5.6714 Q=    0.3401 A=    0.0000 R=    0.0000 C=    0.0000
 XYZ=    9.8957   -7.5182  -12.6385 Q=    0.3388 A=    0.0000 R=    0.0000 C=    0.0000
 XYZ=   14.3877   -1.9093   -8.2637 Q=    0.3405 A=    0.0000 R=    0.0000 C=    0.0000
 XYZ=   11.2212   -3.6984   -1.2965 Q=    0.3416 A=    0.0000 R=    0.0000 C=    0.0000
 XYZ=    2.3287   -0.9202   -4.6054 Q=    0.3904 A=    0.0000 R=    0.0000 C=    0.0000
 XYZ=    5.4966   -4.6854  -11.5726 Q=    0.3916 A=    0.0000 R=    0.0000 C=    0.0000
 XYZ=   17.1209   -0.9256   -4.6042 Q=    0.3943 A=    0.0000 R=    0.0000 C=    0.0000
 XYZ=   15.6190   -6.5332   -2.3632 Q=    0.3949 A=    0.0000 R=    0.0000 C=    0.0000
 XYZ=    5.8059   -2.1659   -1.6642 Q=    0.3285 A=    0.0000 R=    0.0000 C=    0.0000
 XYZ=    8.9725   -3.4410   -8.6321 Q=    0.3278 A=    0.0000 R=    0.0000 C=    0.0000
 XYZ=   12.1398   -7.7752   -5.3046 Q=    0.3272 A=    0.0000 R=    0.0000 C=    0.0000
 XYZ=    0.1562   -5.8235   10.4358 Q=   -0.3936 A=    0.0000 R=    0.0000 C=    0.0000
 XYZ=    3.3226  -10.9994    3.4687 Q=   -0.3924 A=    0.0000 R=    0.0000 C=    0.0000
 XYZ=    8.2847   -5.3901    3.5004 Q=   -0.4008 A=    0.0000 R=    0.0000 C=    0.0000
 XYZ=   14.9557   -5.8253   10.4342 Q=   -0.3976 A=    0.0000 R=    0.0000 C=    0.0000
 XYZ=    5.1183   -0.2176   10.4675 Q=   -0.4007 A=    0.0000 R=    0.0000 C=    0.0000
 XYZ=    2.6144   -9.3503    1.5479 Q=   -0.1197 A=    0.0000 R=    0.0000 C=    0.0000
 XYZ=    8.9992   -3.7444    5.4239 Q=   -0.1181 A=    0.0000 R=    0.0000 C=    0.0000
 XYZ=   14.2413   -7.4710    8.5107 Q=   -0.1230 A=    0.0000 R=    0.0000 C=    0.0000
 XYZ=    5.8327   -1.8633   12.3911 Q=   -0.1189 A=    0.0000 R=    0.0000 C=    0.0000
 XYZ=   14.1547   -1.2010    0.1569 Q=   -0.3176 A=    0.0000 R=    0.0000 C=    0.0000
 XYZ=   10.9882   -4.4067    7.1243 Q=   -0.3163 A=    0.0000 R=    0.0000 C=    0.0000
 XYZ=   12.2522   -6.8086    6.8103 Q=   -0.3165 A=    0.0000 R=    0.0000 C=    0.0000
 XYZ=    9.0857  -10.0144   13.7777 Q=   -0.3143 A=    0.0000 R=    0.0000 C=    0.0000
 XYZ=   14.9291   -2.8583    2.1420 Q=   -0.1210 A=    0.0000 R=    0.0000 C=    0.0000
 XYZ=   11.7627   -2.7493    9.1092 Q=   -0.1231 A=    0.0000 R=    0.0000 C=    0.0000
 XYZ=   11.4778   -8.4661    4.8253 Q=   -0.1226 A=    0.0000 R=    0.0000 C=    0.0000
 XYZ=    8.3113   -8.3570   11.7926 Q=   -0.1242 A=    0.0000 R=    0.0000 C=    0.0000
 XYZ=   16.8725   -2.1531    3.7686 Q=   -0.4003 A=    0.0000 R=    0.0000 C=    0.0000
 XYZ=   13.7059   -3.4546   10.7359 Q=   -0.3968 A=    0.0000 R=    0.0000 C=    0.0000
 XYZ=    9.5345   -7.7608    3.1987 Q=   -0.4003 A=    0.0000 R=    0.0000 C=    0.0000
 XYZ=    6.3680   -9.0622   10.1660 Q=   -0.3988 A=    0.0000 R=    0.0000 C=    0.0000
 XYZ=    1.6926   -6.3611   11.7305 Q=    0.2941 A=    0.0000 R=    0.0000 C=    0.0000
 XYZ=    4.8591  -10.4619    4.7633 Q=    0.2940 A=    0.0000 R=    0.0000 C=    0.0000
 XYZ=    6.7516   -4.8501    2.2030 Q=    0.2959 A=    0.0000 R=    0.0000 C=    0.0000
 XYZ=    3.5850   -0.7576    9.1702 Q=    0.2957 A=    0.0000 R=    0.0000 C=    0.0000
 XYZ=    0.3961   -9.3048    8.2634 Q=    0.3390 A=    0.0000 R=    0.0000 C=    0.0000
 XYZ=    3.5626   -7.5183    1.2961 Q=    0.3394 A=    0.0000 R=    0.0000 C=    0.0000
 XYZ=    8.0547   -1.9093    5.6708 Q=    0.3407 A=    0.0000 R=    0.0000 C=    0.0000
 XYZ=    4.8882   -3.6983   12.6381 Q=    0.3407 A=    0.0000 R=    0.0000 C=    0.0000
 XYZ=   13.9545   -4.6821    2.3632 Q=    0.3951 A=    0.0000 R=    0.0000 C=    0.0000
 XYZ=   10.7879   -0.9256    9.3305 Q=    0.3944 A=    0.0000 R=    0.0000 C=    0.0000
 XYZ=   12.4525  -10.2897    4.6040 Q=    0.3951 A=    0.0000 R=    0.0000 C=    0.0000
 XYZ=    9.2860   -6.5333   11.5714 Q=    0.3945 A=    0.0000 R=    0.0000 C=    0.0000
 XYZ=   17.4336   -3.4401    5.3046 Q=    0.3270 A=    0.0000 R=    0.0000 C=    0.0000
 XYZ=   14.2671   -2.1675   12.2719 Q=    0.3262 A=    0.0000 R=    0.0000 C=    0.0000
 XYZ=    8.9733   -9.0478    1.6627 Q=    0.3269 A=    0.0000 R=    0.0000 C=    0.0000
 XYZ=    5.8068   -7.7752    8.6299 Q=    0.3271 A=    0.0000 R=    0.0000 C=    0.0000
 XYZ=    1.9518   -5.3900   17.4348 Q=   -0.4007 A=    0.0000 R=    0.0000 C=    0.0000
 XYZ=    7.8216   -1.2009   14.0917 Q=   -0.3138 A=    0.0000 R=    0.0000 C=    0.0000
 XYZ=    8.5961   -2.8584   16.0766 Q=   -0.1256 A=    0.0000 R=    0.0000 C=    0.0000
 XYZ=    3.2014   -7.7608   17.1334 Q=   -0.3989 A=    0.0000 R=    0.0000 C=    0.0000
 XYZ=    0.4185   -4.8501   16.1375 Q=    0.2959 A=    0.0000 R=    0.0000 C=    0.0000
 XYZ=    7.6214   -4.6821   16.2977 Q=    0.3942 A=    0.0000 R=    0.0000 C=    0.0000
 XYZ=    2.6403   -9.0478   15.5973 Q=    0.3266 A=    0.0000 R=    0.0000 C=    0.0000
 XYZ=    3.7187    9.3503  -15.4826 Q=   -0.1191 A=    0.0000 R=    0.0000 C=    0.0000
 XYZ=    6.2025    2.8586  -16.0766 Q=   -0.1109 A=    0.0000 R=    0.0000 C=    0.0000
 XYZ=    4.2590    2.1549  -17.7021 Q=   -0.4044 A=    0.0000 R=    0.0000 C=    0.0000
 XYZ=    2.7704    7.5183  -15.2307 Q=    0.3394 A=    0.0000 R=    0.0000 C=    0.0000
 XYZ=    7.1695    4.6854  -16.2966 Q=    0.3911 A=    0.0000 R=    0.0000 C=    0.0000
 XYZ=    6.9649    1.2008  -14.0895 Q=   -0.3217 A=    0.0000 R=    0.0000 C=    0.0000
 XYZ=    0.5521    7.4727   -8.5153 Q=   -0.1217 A=    0.0000 R=    0.0000 C=    0.0000
 XYZ=    2.5346    6.8084   -6.8123 Q=   -0.3192 A=    0.0000 R=    0.0000 C=    0.0000
 XYZ=    5.7011   10.0146  -13.7795 Q=   -0.3239 A=    0.0000 R=    0.0000 C=    0.0000
 XYZ=    3.0360    2.7491   -9.1094 Q=   -0.1122 A=    0.0000 R=    0.0000 C=    0.0000
 XYZ=    1.0924    3.4527  -10.7346 Q=   -0.4047 A=    0.0000 R=    0.0000 C=    0.0000
 XYZ=    4.0030    0.9223   -9.3293 Q=    0.3917 A=    0.0000 R=    0.0000 C=    0.0000
 XYZ=    0.5271    2.1666  -12.2698 Q=    0.3270 A=    0.0000 R=    0.0000 C=    0.0000
 XYZ=    9.6557    0.2159  -10.4660 Q=   -0.3941 A=    0.0000 R=    0.0000 C=    0.0000
 XYZ=    6.4891    5.3917   -3.4985 Q=   -0.3940 A=    0.0000 R=    0.0000 C=    0.0000
 XYZ=   14.6178    5.8254  -10.4344 Q=   -0.4008 A=    0.0000 R=    0.0000 C=    0.0000
 XYZ=   11.4513   10.9977   -3.4670 Q=   -0.4028 A=    0.0000 R=    0.0000 C=    0.0000
 XYZ=    8.9474    1.8650  -12.3867 Q=   -0.1190 A=    0.0000 R=    0.0000 C=    0.0000
 XYZ=    5.7809    3.7427   -5.4193 Q=   -0.1191 A=    0.0000 R=    0.0000 C=    0.0000
 XYZ=   15.3322    7.4710   -8.5108 Q=   -0.1187 A=    0.0000 R=    0.0000 C=    0.0000
 XYZ=   12.1657    9.3520   -1.5435 Q=   -0.1160 A=    0.0000 R=    0.0000 C=    0.0000
 XYZ=    3.7985    4.4069   -7.1223 Q=   -0.3246 A=    0.0000 R=    0.0000 C=    0.0000
 XYZ=   15.4189    1.2009   -0.1571 Q=   -0.3147 A=    0.0000 R=    0.0000 C=    0.0000
 XYZ=    3.2970    8.4662   -4.8252 Q=   -0.1093 A=    0.0000 R=    0.0000 C=    0.0000
 XYZ=    6.4636    8.3567  -11.7926 Q=   -0.1105 A=    0.0000 R=    0.0000 C=    0.0000
 XYZ=   14.6443    2.8584   -2.1420 Q=   -0.1224 A=    0.0000 R=    0.0000 C=    0.0000
 XYZ=    5.2406    7.7626   -3.2000 Q=   -0.4049 A=    0.0000 R=    0.0000 C=    0.0000
 XYZ=    8.4071    9.0604  -10.1673 Q=   -0.4033 A=    0.0000 R=    0.0000 C=    0.0000
 XYZ=   12.7009    2.1531   -3.7685 Q=   -0.3979 A=    0.0000 R=    0.0000 C=    0.0000
 XYZ=   15.8674    3.4545  -10.7358 Q=   -0.3987 A=    0.0000 R=    0.0000 C=    0.0000
 XYZ=   11.1921    0.7534   -9.1713 Q=    0.2943 A=    0.0000 R=    0.0000 C=    0.0000
 XYZ=    8.0257    4.8542   -2.2040 Q=    0.2943 A=    0.0000 R=    0.0000 C=    0.0000
 XYZ=   13.0846    6.3652  -11.7317 Q=    0.2958 A=    0.0000 R=    0.0000 C=    0.0000
 XYZ=    9.9181   10.4578   -4.7643 Q=    0.2954 A=    0.0000 R=    0.0000 C=    0.0000
 XYZ=    9.8957    3.6971  -12.6385 Q=    0.3389 A=    0.0000 R=    0.0000 C=    0.0000
 XYZ=    6.7292    1.9106   -5.6713 Q=    0.3397 A=    0.0000 R=    0.0000 C=    0.0000
 XYZ=   14.3877    9.3060   -8.2637 Q=    0.3406 A=    0.0000 R=    0.0000 C=    0.0000
 XYZ=   11.2212    7.5169   -1.2965 Q=    0.3405 A=    0.0000 R=    0.0000 C=    0.0000
 XYZ=    2.3300   10.2931   -4.6054 Q=    0.3901 A=    0.0000 R=    0.0000 C=    0.0000
 XYZ=    5.4966    6.5299  -11.5726 Q=    0.3908 A=    0.0000 R=    0.0000 C=    0.0000
 XYZ=   15.6190    4.6821   -2.3632 Q=    0.3946 A=    0.0000 R=    0.0000 C=    0.0000
 XYZ=    5.8059    9.0487   -1.6648 Q=    0.3272 A=    0.0000 R=    0.0000 C=    0.0000
 XYZ=    8.9725    7.7743   -8.6321 Q=    0.3267 A=    0.0000 R=    0.0000 C=    0.0000
 XYZ=   12.1398    3.4401   -5.3046 Q=    0.3264 A=    0.0000 R=    0.0000 C=    0.0000
 XYZ=    0.1562    5.3918   10.4358 Q=   -0.3935 A=    0.0000 R=    0.0000 C=    0.0000
 XYZ=   18.1221    0.2176    3.4671 Q=   -0.4000 A=    0.0000 R=    0.0000 C=    0.0000
 XYZ=    8.2847    5.8253    3.5004 Q=   -0.4004 A=    0.0000 R=    0.0000 C=    0.0000
 XYZ=   14.9557    5.3901   10.4342 Q=   -0.4003 A=    0.0000 R=    0.0000 C=    0.0000
 XYZ=    5.1183   10.9977   10.4675 Q=   -0.4010 A=    0.0000 R=    0.0000 C=    0.0000
 XYZ=   17.4077    1.8633    1.5435 Q=   -0.1203 A=    0.0000 R=    0.0000 C=    0.0000
 XYZ=    8.9992    7.4710    5.4239 Q=   -0.1194 A=    0.0000 R=    0.0000 C=    0.0000
 XYZ=   14.2413    3.7444    8.5107 Q=   -0.1194 A=    0.0000 R=    0.0000 C=    0.0000
 XYZ=    5.8327    9.3520   12.3911 Q=   -0.1183 A=    0.0000 R=    0.0000 C=    0.0000
 XYZ=    9.0857    1.2010   13.7777 Q=   -0.3149 A=    0.0000 R=    0.0000 C=    0.0000
 XYZ=   14.1547   10.0144    0.1569 Q=   -0.3167 A=    0.0000 R=    0.0000 C=    0.0000
 XYZ=   10.9882    6.8086    7.1243 Q=   -0.3166 A=    0.0000 R=    0.0000 C=    0.0000
 XYZ=   12.2522    4.4067    6.8103 Q=   -0.3162 A=    0.0000 R=    0.0000 C=    0.0000
 XYZ=    0.1306    8.3568    2.1420 Q=   -0.1092 A=    0.0000 R=    0.0000 C=    0.0000
 XYZ=    8.3113    2.8583   11.7926 Q=   -0.1232 A=    0.0000 R=    0.0000 C=    0.0000
 XYZ=   14.9291    8.3570    2.1420 Q=   -0.1228 A=    0.0000 R=    0.0000 C=    0.0000
 XYZ=   11.7627    8.4661    9.1092 Q=   -0.1228 A=    0.0000 R=    0.0000 C=    0.0000
 XYZ=   11.4778    2.7493    4.8253 Q=   -0.1229 A=    0.0000 R=    0.0000 C=    0.0000
 XYZ=    2.0740    9.0604    3.7674 Q=   -0.4053 A=    0.0000 R=    0.0000 C=    0.0000
 XYZ=    6.3680    2.1531   10.1660 Q=   -0.3992 A=    0.0000 R=    0.0000 C=    0.0000
 XYZ=   16.8725    9.0622    3.7686 Q=   -0.3993 A=    0.0000 R=    0.0000 C=    0.0000
 XYZ=   13.7059    7.7608   10.7359 Q=   -0.3986 A=    0.0000 R=    0.0000 C=    0.0000
 XYZ=    9.5345    3.4546    3.1987 Q=   -0.3986 A=    0.0000 R=    0.0000 C=    0.0000
 XYZ=    1.6926    4.8542   11.7305 Q=    0.2942 A=    0.0000 R=    0.0000 C=    0.0000
 XYZ=    6.7516    6.3652    2.2030 Q=    0.2958 A=    0.0000 R=    0.0000 C=    0.0000
 XYZ=    3.5850   10.4578    9.1702 Q=    0.2957 A=    0.0000 R=    0.0000 C=    0.0000
 XYZ=    0.3961    1.9106    8.2634 Q=    0.3391 A=    0.0000 R=    0.0000 C=    0.0000
 XYZ=   18.3522    3.6983    1.2964 Q=    0.3408 A=    0.0000 R=    0.0000 C=    0.0000
 XYZ=    8.0547    9.3061    5.6708 Q=    0.3405 A=    0.0000 R=    0.0000 C=    0.0000
 XYZ=   15.1857    1.9093    8.2638 Q=    0.3404 A=    0.0000 R=    0.0000 C=    0.0000
 XYZ=    4.8882    7.5170   12.6381 Q=    0.3408 A=    0.0000 R=    0.0000 C=    0.0000
 XYZ=    9.2860    4.6821   11.5714 Q=    0.3947 A=    0.0000 R=    0.0000 C=    0.0000
 XYZ=   13.9545    6.5333    2.3632 Q=    0.3946 A=    0.0000 R=    0.0000 C=    0.0000
 XYZ=   10.7879   10.2897    9.3305 Q=    0.3947 A=    0.0000 R=    0.0000 C=    0.0000
 XYZ=   12.4525    0.9256    4.6040 Q=    0.3947 A=    0.0000 R=    0.0000 C=    0.0000
 XYZ=    2.6394    7.7743    5.3025 Q=    0.3276 A=    0.0000 R=    0.0000 C=    0.0000
 XYZ=    5.8068    3.4402    8.6299 Q=    0.3270 A=    0.0000 R=    0.0000 C=    0.0000
 XYZ=    8.9733    2.1675    1.6627 Q=    0.3264 A=    0.0000 R=    0.0000 C=    0.0000
 XYZ=    1.9518    5.8254   17.4348 Q=   -0.4008 A=    0.0000 R=    0.0000 C=    0.0000
 XYZ=   11.0748    1.8633   15.4780 Q=   -0.1204 A=    0.0000 R=    0.0000 C=    0.0000
 XYZ=    7.8216   10.0144   14.0917 Q=   -0.3173 A=    0.0000 R=    0.0000 C=    0.0000
 XYZ=    3.2014    3.4545   17.1334 Q=   -0.3987 A=    0.0000 R=    0.0000 C=    0.0000
 XYZ=    0.4185    6.3652   16.1375 Q=    0.2958 A=    0.0000 R=    0.0000 C=    0.0000
 XYZ=    6.1195    0.9256   18.5388 Q=    0.3944 A=    0.0000 R=    0.0000 C=    0.0000
 XYZ=    7.6214    6.5332   16.2977 Q=    0.3944 A=    0.0000 R=    0.0000 C=    0.0000
 XYZ=    2.6403    2.1675   15.5973 Q=    0.3266 A=    0.0000 R=    0.0000 C=    0.0000
 XYZ=    2.5399   18.0243   -6.8061 Q=   -0.3134 A=    0.0000 R=    0.0000 C=    0.0000
 XYZ=    3.0411   13.9594   -9.1074 Q=   -0.1088 A=    0.0000 R=    0.0000 C=    0.0000
 XYZ=    1.0984   14.6609  -10.7331 Q=   -0.4083 A=    0.0000 R=    0.0000 C=    0.0000
 XYZ=    4.0063   12.1324   -9.3293 Q=    0.3883 A=    0.0000 R=    0.0000 C=    0.0000
 XYZ=    0.8365   15.9008   -2.3620 Q=    0.3901 A=    0.0000 R=    0.0000 C=    0.0000
 XYZ=    0.5264   13.3804  -12.2716 Q=    0.3259 A=    0.0000 R=    0.0000 C=    0.0000
 XYZ=    6.4896   16.6065   -3.4984 Q=   -0.3993 A=    0.0000 R=    0.0000 C=    0.0000
 XYZ=    9.6557   11.4312  -10.4660 Q=   -0.3950 A=    0.0000 R=    0.0000 C=    0.0000
 XYZ=    5.7816   14.9573   -5.4190 Q=   -0.1178 A=    0.0000 R=    0.0000 C=    0.0000
 XYZ=    3.7996   15.6212   -7.1218 Q=   -0.3231 A=    0.0000 R=    0.0000 C=    0.0000
 XYZ=    0.6320   12.4160   -0.1551 Q=   -0.3233 A=    0.0000 R=    0.0000 C=    0.0000
 XYZ=   12.7009   13.3685   -3.7685 Q=   -0.3991 A=    0.0000 R=    0.0000 C=    0.0000
 XYZ=    8.0260   16.0695   -2.2036 Q=    0.2961 A=    0.0000 R=    0.0000 C=    0.0000
 XYZ=   11.1921   11.9688   -9.1713 Q=    0.2947 A=    0.0000 R=    0.0000 C=    0.0000
 XYZ=    6.7294   13.1253   -5.6714 Q=    0.3401 A=    0.0000 R=    0.0000 C=    0.0000
 XYZ=    3.3226   11.4313    3.4687 Q=   -0.3924 A=    0.0000 R=    0.0000 C=    0.0000
 XYZ=    8.2847   17.0406    3.5004 Q=   -0.4008 A=    0.0000 R=    0.0000 C=    0.0000
 XYZ=    2.6144   13.0803    1.5479 Q=   -0.1197 A=    0.0000 R=    0.0000 C=    0.0000
 XYZ=   11.4778   13.9646    4.8253 Q=   -0.1226 A=    0.0000 R=    0.0000 C=    0.0000
 XYZ=    9.5345   14.6699    3.1987 Q=   -0.4003 A=    0.0000 R=    0.0000 C=    0.0000
 XYZ=    6.3680   13.3685   10.1660 Q=   -0.3988 A=    0.0000 R=    0.0000 C=    0.0000
 XYZ=    4.8591   11.9688    4.7633 Q=    0.2940 A=    0.0000 R=    0.0000 C=    0.0000
 XYZ=    6.7516   17.5806    2.2030 Q=    0.2959 A=    0.0000 R=    0.0000 C=    0.0000
 XYZ=    0.3961   13.1259    8.2634 Q=    0.3390 A=    0.0000 R=    0.0000 C=    0.0000
 XYZ=    3.5626   14.9124    1.2961 Q=    0.3394 A=    0.0000 R=    0.0000 C=    0.0000
 XYZ=   12.4525   12.1409    4.6040 Q=    0.3951 A=    0.0000 R=    0.0000 C=    0.0000
 XYZ=    8.9733   13.3829    1.6627 Q=    0.3269 A=    0.0000 R=    0.0000 C=    0.0000
 XYZ=    5.8068   14.6555    8.6299 Q=    0.3271 A=    0.0000 R=    0.0000 C=    0.0000
 XYZ=  -64.8481  -43.6605   13.7797 Q=   -0.3213 A=    0.0000 R=    0.0000 C=    0.0000
 XYZ=  -65.3239  -39.4696   24.3707 Q=   -0.3937 A=    0.0000 R=    0.0000 C=    0.0000
 XYZ=  -66.0321  -41.1187   22.4499 Q=   -0.1188 A=    0.0000 R=    0.0000 C=    0.0000
 XYZ=  -71.1810  -43.6606   27.7141 Q=   -0.3240 A=    0.0000 R=    0.0000 C=    0.0000
 XYZ=  -68.0145  -40.4544   20.7469 Q=   -0.3242 A=    0.0000 R=    0.0000 C=    0.0000
 XYZ=  -68.5160  -36.3951   23.0439 Q=   -0.1089 A=    0.0000 R=    0.0000 C=    0.0000
 XYZ=  -65.3494  -36.5046   16.0766 Q=   -0.1102 A=    0.0000 R=    0.0000 C=    0.0000
 XYZ=  -66.5724  -37.0987   24.6692 Q=   -0.4045 A=    0.0000 R=    0.0000 C=    0.0000
 XYZ=  -63.7873  -40.0071   25.6652 Q=    0.2946 A=    0.0000 R=    0.0000 C=    0.0000
 XYZ=  -65.0838  -42.9507   22.1979 Q=    0.3400 A=    0.0000 R=    0.0000 C=    0.0000
 XYZ=  -69.4830  -34.5683   23.2638 Q=    0.3905 A=    0.0000 R=    0.0000 C=    0.0000
 XYZ=  -66.3164  -38.3314   16.2966 Q=    0.3911 A=    0.0000 R=    0.0000 C=    0.0000
 XYZ=  -66.0070  -35.8127   26.2044 Q=    0.3275 A=    0.0000 R=    0.0000 C=    0.0000
 XYZ=  -68.4904  -44.6454   31.3379 Q=   -0.3940 A=    0.0000 R=    0.0000 C=    0.0000
 XYZ=  -71.6568  -39.4695   38.3050 Q=   -0.3931 A=    0.0000 R=    0.0000 C=    0.0000
 XYZ=  -63.5283  -39.0361   31.3696 Q=   -0.4000 A=    0.0000 R=    0.0000 C=    0.0000
 XYZ=  -66.6947  -33.8636   38.3367 Q=   -0.4006 A=    0.0000 R=    0.0000 C=    0.0000
 XYZ=  -69.1986  -42.9963   29.4171 Q=   -0.1195 A=    0.0000 R=    0.0000 C=    0.0000
 XYZ=  -72.3651  -41.1187   36.3843 Q=   -0.1199 A=    0.0000 R=    0.0000 C=    0.0000
 XYZ=  -65.9803  -35.5093   40.2602 Q=   -0.1180 A=    0.0000 R=    0.0000 C=    0.0000
 XYZ=  -77.5142  -43.6605   41.6489 Q=   -0.3212 A=    0.0000 R=    0.0000 C=    0.0000
 XYZ=  -74.3476  -40.4545   34.6815 Q=   -0.3228 A=    0.0000 R=    0.0000 C=    0.0000
 XYZ=  -63.9914  -34.8469   41.9609 Q=   -0.3169 A=    0.0000 R=    0.0000 C=    0.0000
 XYZ=  -71.6824  -36.5046   30.0112 Q=   -0.1088 A=    0.0000 R=    0.0000 C=    0.0000
 XYZ=  -74.8489  -36.3951   36.9784 Q=   -0.1094 A=    0.0000 R=    0.0000 C=    0.0000
 XYZ=  -69.7390  -35.8009   31.6366 Q=   -0.4049 A=    0.0000 R=    0.0000 C=    0.0000
 XYZ=  -72.9055  -37.0988   38.6039 Q=   -0.4038 A=    0.0000 R=    0.0000 C=    0.0000
 XYZ=  -65.4450  -42.7082   38.0351 Q=   -0.3988 A=    0.0000 R=    0.0000 C=    0.0000
 XYZ=  -66.9539  -44.1079   32.6325 Q=    0.2943 A=    0.0000 R=    0.0000 C=    0.0000
 XYZ=  -70.1204  -40.0071   39.5997 Q=    0.2946 A=    0.0000 R=    0.0000 C=    0.0000
 XYZ=  -65.0614  -38.4961   30.0722 Q=    0.2961 A=    0.0000 R=    0.0000 C=    0.0000
 XYZ=  -68.2280  -34.4036   37.0394 Q=    0.2961 A=    0.0000 R=    0.0000 C=    0.0000
 XYZ=  -68.2504  -41.1643   29.1652 Q=    0.3397 A=    0.0000 R=    0.0000 C=    0.0000
 XYZ=  -71.4169  -42.9508   36.1326 Q=    0.3395 A=    0.0000 R=    0.0000 C=    0.0000
 XYZ=  -63.7583  -35.5553   33.5400 Q=    0.3408 A=    0.0000 R=    0.0000 C=    0.0000
 XYZ=  -66.9248  -37.3444   40.5073 Q=    0.3411 A=    0.0000 R=    0.0000 C=    0.0000
 XYZ=  -72.6495  -38.3314   30.2312 Q=    0.3913 A=    0.0000 R=    0.0000 C=    0.0000
 XYZ=  -75.8160  -34.5683   37.1986 Q=    0.3915 A=    0.0000 R=    0.0000 C=    0.0000
 XYZ=  -69.1736  -37.0870   33.1717 Q=    0.3279 A=    0.0000 R=    0.0000 C=    0.0000
 XYZ=  -72.3401  -35.8126   40.1390 Q=    0.3274 A=    0.0000 R=    0.0000 C=    0.0000
 XYZ=  -66.0062  -41.4212   36.4991 Q=    0.3274 A=    0.0000 R=    0.0000 C=    0.0000
 XYZ=  -74.8233  -44.6454   45.2723 Q=   -0.3936 A=    0.0000 R=    0.0000 C=    0.0000
 XYZ=  -77.9900  -39.4696   52.2398 Q=   -0.3936 A=    0.0000 R=    0.0000 C=    0.0000
 XYZ=  -69.8612  -39.0360   45.3039 Q=   -0.4004 A=    0.0000 R=    0.0000 C=    0.0000
 XYZ=  -73.0278  -33.8636   52.2714 Q=   -0.4024 A=    0.0000 R=    0.0000 C=    0.0000
 XYZ=  -75.5316  -42.9963   43.3517 Q=   -0.1185 A=    0.0000 R=    0.0000 C=    0.0000
 XYZ=  -78.6982  -41.1187   50.3190 Q=   -0.1187 A=    0.0000 R=    0.0000 C=    0.0000
 XYZ=  -69.1468  -37.3904   47.2275 Q=   -0.1183 A=    0.0000 R=    0.0000 C=    0.0000
 XYZ=  -63.9048  -41.1170   50.3146 Q=   -0.1181 A=    0.0000 R=    0.0000 C=    0.0000
 XYZ=  -72.3134  -35.5093   54.1949 Q=   -0.1156 A=    0.0000 R=    0.0000 C=    0.0000
 XYZ=  -83.8471  -43.6606   55.5833 Q=   -0.3240 A=    0.0000 R=    0.0000 C=    0.0000
 XYZ=  -80.6806  -40.4544   48.6160 Q=   -0.3241 A=    0.0000 R=    0.0000 C=    0.0000
 XYZ=  -69.0602  -43.6604   55.5812 Q=   -0.3143 A=    0.0000 R=    0.0000 C=    0.0000
 XYZ=  -67.1579  -38.0528   48.9281 Q=   -0.3149 A=    0.0000 R=    0.0000 C=    0.0000
 XYZ=  -65.8937  -40.4546   48.6140 Q=   -0.3149 A=    0.0000 R=    0.0000 C=    0.0000
 XYZ=  -81.1820  -36.3951   50.9131 Q=   -0.1088 A=    0.0000 R=    0.0000 C=    0.0000
 XYZ=  -78.0155  -36.5046   43.9458 Q=   -0.1101 A=    0.0000 R=    0.0000 C=    0.0000
 XYZ=  -69.8347  -42.0030   53.5963 Q=   -0.1219 A=    0.0000 R=    0.0000 C=    0.0000
 XYZ=  -66.3835  -36.3954   50.9131 Q=   -0.1235 A=    0.0000 R=    0.0000 C=    0.0000
 XYZ=  -66.6681  -42.1120   46.6290 Q=   -0.1232 A=    0.0000 R=    0.0000 C=    0.0000
 XYZ=  -79.2385  -37.0987   52.5384 Q=   -0.4044 A=    0.0000 R=    0.0000 C=    0.0000
 XYZ=  -76.0720  -35.8009   45.5710 Q=   -0.4028 A=    0.0000 R=    0.0000 C=    0.0000
 XYZ=  -71.7781  -42.7082   51.9699 Q=   -0.3975 A=    0.0000 R=    0.0000 C=    0.0000
 XYZ=  -64.4400  -37.1006   52.5396 Q=   -0.3986 A=    0.0000 R=    0.0000 C=    0.0000
 XYZ=  -68.6116  -41.4068   45.0025 Q=   -0.3983 A=    0.0000 R=    0.0000 C=    0.0000
 XYZ=  -73.2869  -44.1079   46.5671 Q=    0.2948 A=    0.0000 R=    0.0000 C=    0.0000
 XYZ=  -76.4534  -40.0071   53.5344 Q=    0.2947 A=    0.0000 R=    0.0000 C=    0.0000
 XYZ=  -71.3945  -38.4961   44.0067 Q=    0.2962 A=    0.0000 R=    0.0000 C=    0.0000
 XYZ=  -74.5610  -34.4036   50.9740 Q=    0.2958 A=    0.0000 R=    0.0000 C=    0.0000
 XYZ=  -74.5834  -41.1642   43.0999 Q=    0.3394 A=    0.0000 R=    0.0000 C=    0.0000
 XYZ=  -77.7499  -42.9507   50.0671 Q=    0.3401 A=    0.0000 R=    0.0000 C=    0.0000
 XYZ=  -70.0913  -35.5553   47.4747 Q=    0.3410 A=    0.0000 R=    0.0000 C=    0.0000
 XYZ=  -73.2578  -37.3444   54.4419 Q=    0.3410 A=    0.0000 R=    0.0000 C=    0.0000
 XYZ=  -82.1490  -34.5683   51.1330 Q=    0.3906 A=    0.0000 R=    0.0000 C=    0.0000
 XYZ=  -78.9825  -38.3314   44.1658 Q=    0.3912 A=    0.0000 R=    0.0000 C=    0.0000
 XYZ=  -68.8600  -40.1792   53.3752 Q=    0.3951 A=    0.0000 R=    0.0000 C=    0.0000
 XYZ=  -67.3581  -34.5716   51.1342 Q=    0.3948 A=    0.0000 R=    0.0000 C=    0.0000
 XYZ=  -65.6935  -43.9358   46.4080 Q=    0.3948 A=    0.0000 R=    0.0000 C=    0.0000
 XYZ=  -64.1916  -38.3281   44.1669 Q=    0.3948 A=    0.0000 R=    0.0000 C=    0.0000
 XYZ=  -78.6731  -35.8127   54.0735 Q=    0.3276 A=    0.0000 R=    0.0000 C=    0.0000
 XYZ=  -75.5066  -37.0870   47.1062 Q=    0.3271 A=    0.0000 R=    0.0000 C=    0.0000
 XYZ=  -72.3392  -41.4212   50.4338 Q=    0.3268 A=    0.0000 R=    0.0000 C=    0.0000
 XYZ=  -63.8789  -35.8135   54.0756 Q=    0.3270 A=    0.0000 R=    0.0000 C=    0.0000
 XYZ=  -69.1727  -42.6938   43.4665 Q=    0.3270 A=    0.0000 R=    0.0000 C=    0.0000
 XYZ=  -64.8481  -32.4452   13.7797 Q=   -0.3230 A=    0.0000 R=    0.0000 C=    0.0000
 XYZ=  -65.3234  -28.2548   24.3708 Q=   -0.3990 A=    0.0000 R=    0.0000 C=    0.0000
 XYZ=  -66.0313  -29.9041   22.4502 Q=   -0.1175 A=    0.0000 R=    0.0000 C=    0.0000
 XYZ=  -68.0134  -29.2401   20.7474 Q=   -0.3228 A=    0.0000 R=    0.0000 C=    0.0000
 XYZ=  -71.1810  -32.4453   27.7141 Q=   -0.3230 A=    0.0000 R=    0.0000 C=    0.0000
 XYZ=  -68.5144  -25.1767   23.0478 Q=   -0.1152 A=    0.0000 R=    0.0000 C=    0.0000
 XYZ=  -65.3494  -25.2893   16.0766 Q=   -0.1109 A=    0.0000 R=    0.0000 C=    0.0000
 XYZ=  -66.5708  -25.8836   24.6707 Q=   -0.4035 A=    0.0000 R=    0.0000 C=    0.0000
 XYZ=  -63.7869  -28.7918   25.6656 Q=    0.2964 A=    0.0000 R=    0.0000 C=    0.0000
 XYZ=  -65.0835  -31.7361   22.1977 Q=    0.3405 A=    0.0000 R=    0.0000 C=    0.0000
 XYZ=  -69.4843  -23.3509   23.2638 Q=    0.3908 A=    0.0000 R=    0.0000 C=    0.0000
 XYZ=  -66.3164  -27.1161   16.2966 Q=    0.3919 A=    0.0000 R=    0.0000 C=    0.0000
 XYZ=  -66.0070  -24.5965   26.2049 Q=    0.3288 A=    0.0000 R=    0.0000 C=    0.0000
 XYZ=  -71.6568  -28.2542   38.3050 Q=   -0.3932 A=    0.0000 R=    0.0000 C=    0.0000
 XYZ=  -68.4904  -33.4301   31.3379 Q=   -0.3920 A=    0.0000 R=    0.0000 C=    0.0000
 XYZ=  -63.5283  -27.8207   31.3696 Q=   -0.4005 A=    0.0000 R=    0.0000 C=    0.0000
 XYZ=  -66.6947  -22.6483   38.3367 Q=   -0.4003 A=    0.0000 R=    0.0000 C=    0.0000
 XYZ=  -72.3651  -29.9033   36.3843 Q=   -0.1198 A=    0.0000 R=    0.0000 C=    0.0000
 XYZ=  -69.1986  -31.7810   29.4171 Q=   -0.1194 A=    0.0000 R=    0.0000 C=    0.0000
 XYZ=  -65.9803  -24.2940   40.2602 Q=   -0.1185 A=    0.0000 R=    0.0000 C=    0.0000
 XYZ=  -74.3476  -29.2391   34.6815 Q=   -0.3231 A=    0.0000 R=    0.0000 C=    0.0000
 XYZ=  -77.5142  -32.4452   41.6489 Q=   -0.3229 A=    0.0000 R=    0.0000 C=    0.0000
 XYZ=  -63.9914  -23.6316   41.9609 Q=   -0.3135 A=    0.0000 R=    0.0000 C=    0.0000
 XYZ=  -71.6824  -25.2892   30.0112 Q=   -0.1100 A=    0.0000 R=    0.0000 C=    0.0000
 XYZ=  -74.8489  -25.1797   36.9784 Q=   -0.1093 A=    0.0000 R=    0.0000 C=    0.0000
 XYZ=  -69.7390  -24.5856   31.6366 Q=   -0.4038 A=    0.0000 R=    0.0000 C=    0.0000
 XYZ=  -72.9055  -25.8834   38.6039 Q=   -0.4037 A=    0.0000 R=    0.0000 C=    0.0000
 XYZ=  -65.4450  -31.4929   38.0351 Q=   -0.3984 A=    0.0000 R=    0.0000 C=    0.0000
 XYZ=  -70.1204  -28.7918   39.5997 Q=    0.2945 A=    0.0000 R=    0.0000 C=    0.0000
 XYZ=  -66.9539  -32.8925   32.6325 Q=    0.2943 A=    0.0000 R=    0.0000 C=    0.0000
 XYZ=  -65.0614  -27.2808   30.0722 Q=    0.2963 A=    0.0000 R=    0.0000 C=    0.0000
 XYZ=  -68.2280  -23.1882   37.0394 Q=    0.2961 A=    0.0000 R=    0.0000 C=    0.0000
 XYZ=  -71.4169  -31.7354   36.1326 Q=    0.3394 A=    0.0000 R=    0.0000 C=    0.0000
 XYZ=  -68.2504  -29.9490   29.1652 Q=    0.3397 A=    0.0000 R=    0.0000 C=    0.0000
 XYZ=  -63.7583  -24.3399   33.5400 Q=    0.3411 A=    0.0000 R=    0.0000 C=    0.0000
 XYZ=  -66.9248  -26.1290   40.5073 Q=    0.3411 A=    0.0000 R=    0.0000 C=    0.0000
 XYZ=  -72.6495  -27.1161   30.2312 Q=    0.3911 A=    0.0000 R=    0.0000 C=    0.0000
 XYZ=  -75.8160  -23.3529   37.1986 Q=    0.3915 A=    0.0000 R=    0.0000 C=    0.0000
 XYZ=  -69.1736  -25.8717   33.1717 Q=    0.3279 A=    0.0000 R=    0.0000 C=    0.0000
 XYZ=  -72.3401  -24.5973   40.1390 Q=    0.3274 A=    0.0000 R=    0.0000 C=    0.0000
 XYZ=  -66.0062  -30.2058   36.4991 Q=    0.3274 A=    0.0000 R=    0.0000 C=    0.0000
 XYZ=  -77.9894  -28.2548   52.2400 Q=   -0.3989 A=    0.0000 R=    0.0000 C=    0.0000
 XYZ=  -74.8233  -33.4301   45.2723 Q=   -0.3946 A=    0.0000 R=    0.0000 C=    0.0000
 XYZ=  -69.8612  -27.8206   45.3039 Q=   -0.4003 A=    0.0000 R=    0.0000 C=    0.0000
 XYZ=  -73.0278  -22.6483   52.2714 Q=   -0.3998 A=    0.0000 R=    0.0000 C=    0.0000
 XYZ=  -78.6974  -29.9041   50.3193 Q=   -0.1174 A=    0.0000 R=    0.0000 C=    0.0000
 XYZ=  -75.5316  -31.7810   43.3517 Q=   -0.1179 A=    0.0000 R=    0.0000 C=    0.0000
 XYZ=  -69.1468  -26.1750   47.2275 Q=   -0.1182 A=    0.0000 R=    0.0000 C=    0.0000
 XYZ=  -63.9048  -29.9017   50.3146 Q=   -0.1183 A=    0.0000 R=    0.0000 C=    0.0000
 XYZ=  -72.3134  -24.2940   54.1949 Q=   -0.1226 A=    0.0000 R=    0.0000 C=    0.0000
 XYZ=  -80.6795  -29.2401   48.6165 Q=   -0.3227 A=    0.0000 R=    0.0000 C=    0.0000
 XYZ=  -83.8471  -32.4453   55.5833 Q=   -0.3229 A=    0.0000 R=    0.0000 C=    0.0000
 XYZ=  -67.1579  -26.8374   48.9281 Q=   -0.3152 A=    0.0000 R=    0.0000 C=    0.0000
 XYZ=  -65.8937  -29.2392   48.6140 Q=   -0.3149 A=    0.0000 R=    0.0000 C=    0.0000
 XYZ=  -69.0602  -32.4451   55.5812 Q=   -0.3168 A=    0.0000 R=    0.0000 C=    0.0000
 XYZ=  -81.1805  -25.1767   50.9170 Q=   -0.1151 A=    0.0000 R=    0.0000 C=    0.0000
 XYZ=  -78.0155  -25.2893   43.9458 Q=   -0.1108 A=    0.0000 R=    0.0000 C=    0.0000
 XYZ=  -66.3835  -25.1800   50.9131 Q=   -0.1227 A=    0.0000 R=    0.0000 C=    0.0000
 XYZ=  -66.6681  -30.8967   46.6290 Q=   -0.1234 A=    0.0000 R=    0.0000 C=    0.0000
 XYZ=  -69.8347  -30.7876   53.5963 Q=   -0.1225 A=    0.0000 R=    0.0000 C=    0.0000
 XYZ=  -79.2369  -25.8836   52.5399 Q=   -0.4033 A=    0.0000 R=    0.0000 C=    0.0000
 XYZ=  -76.0720  -24.5856   45.5710 Q=   -0.4043 A=    0.0000 R=    0.0000 C=    0.0000
 XYZ=  -64.4400  -25.8852   52.5396 Q=   -0.3986 A=    0.0000 R=    0.0000 C=    0.0000
 XYZ=  -68.6116  -30.1915   45.0025 Q=   -0.3985 A=    0.0000 R=    0.0000 C=    0.0000
 XYZ=  -71.7781  -31.4929   51.9699 Q=   -0.3987 A=    0.0000 R=    0.0000 C=    0.0000
 XYZ=  -76.4530  -28.7918   53.5348 Q=    0.2966 A=    0.0000 R=    0.0000 C=    0.0000
 XYZ=  -73.2869  -32.8926   46.5671 Q=    0.2951 A=    0.0000 R=    0.0000 C=    0.0000
 XYZ=  -71.3945  -27.2808   44.0067 Q=    0.2963 A=    0.0000 R=    0.0000 C=    0.0000
 XYZ=  -74.5610  -23.1882   50.9740 Q=    0.2969 A=    0.0000 R=    0.0000 C=    0.0000
 XYZ=  -77.7496  -31.7361   50.0669 Q=    0.3406 A=    0.0000 R=    0.0000 C=    0.0000
 XYZ=  -74.5834  -29.9489   43.0999 Q=    0.3392 A=    0.0000 R=    0.0000 C=    0.0000
 XYZ=  -70.0913  -24.3400   47.4747 Q=    0.3409 A=    0.0000 R=    0.0000 C=    0.0000
 XYZ=  -73.2578  -26.1291   54.4419 Q=    0.3420 A=    0.0000 R=    0.0000 C=    0.0000
 XYZ=  -82.1504  -23.3509   51.1330 Q=    0.3909 A=    0.0000 R=    0.0000 C=    0.0000
 XYZ=  -78.9825  -27.1161   44.1658 Q=    0.3920 A=    0.0000 R=    0.0000 C=    0.0000
 XYZ=  -67.3581  -23.3562   51.1342 Q=    0.3947 A=    0.0000 R=    0.0000 C=    0.0000
 XYZ=  -65.6935  -32.7204   46.4080 Q=    0.3948 A=    0.0000 R=    0.0000 C=    0.0000
 XYZ=  -64.1916  -27.1128   44.1669 Q=    0.3946 A=    0.0000 R=    0.0000 C=    0.0000
 XYZ=  -68.8600  -28.9639   53.3752 Q=    0.3953 A=    0.0000 R=    0.0000 C=    0.0000
 XYZ=  -78.6731  -24.5965   54.0741 Q=    0.3289 A=    0.0000 R=    0.0000 C=    0.0000
 XYZ=  -75.5066  -25.8717   47.1062 Q=    0.3282 A=    0.0000 R=    0.0000 C=    0.0000
 XYZ=  -63.8789  -24.5982   54.0756 Q=    0.3270 A=    0.0000 R=    0.0000 C=    0.0000
 XYZ=  -69.1727  -31.4785   43.4665 Q=    0.3270 A=    0.0000 R=    0.0000 C=    0.0000
 XYZ=  -72.3392  -30.2059   50.4338 Q=    0.3277 A=    0.0000 R=    0.0000 C=    0.0000
 XYZ=  -64.8481  -21.2299   13.7797 Q=   -0.3214 A=    0.0000 R=    0.0000 C=    0.0000
 XYZ=  -65.3239  -17.0389   24.3707 Q=   -0.3937 A=    0.0000 R=    0.0000 C=    0.0000
 XYZ=  -66.0321  -18.6880   22.4499 Q=   -0.1188 A=    0.0000 R=    0.0000 C=    0.0000
 XYZ=  -71.1810  -21.2300   27.7141 Q=   -0.3241 A=    0.0000 R=    0.0000 C=    0.0000
 XYZ=  -68.0145  -18.0237   20.7469 Q=   -0.3243 A=    0.0000 R=    0.0000 C=    0.0000
 XYZ=  -68.5160  -13.9644   23.0439 Q=   -0.1090 A=    0.0000 R=    0.0000 C=    0.0000
 XYZ=  -65.3494  -14.0739   16.0766 Q=   -0.1103 A=    0.0000 R=    0.0000 C=    0.0000
 XYZ=  -66.5724  -14.6680   24.6692 Q=   -0.4046 A=    0.0000 R=    0.0000 C=    0.0000
 XYZ=  -63.7873  -17.5764   25.6652 Q=    0.2946 A=    0.0000 R=    0.0000 C=    0.0000
 XYZ=  -65.0838  -20.5201   22.1979 Q=    0.3400 A=    0.0000 R=    0.0000 C=    0.0000
 XYZ=  -69.4830  -12.1376   23.2638 Q=    0.3905 A=    0.0000 R=    0.0000 C=    0.0000
 XYZ=  -66.3164  -15.9008   16.2966 Q=    0.3911 A=    0.0000 R=    0.0000 C=    0.0000
 XYZ=  -66.0070  -13.3820   26.2044 Q=    0.3275 A=    0.0000 R=    0.0000 C=    0.0000
 XYZ=  -68.4904  -22.2148   31.3379 Q=   -0.3941 A=    0.0000 R=    0.0000 C=    0.0000
 XYZ=  -71.6568  -17.0389   38.3050 Q=   -0.3932 A=    0.0000 R=    0.0000 C=    0.0000
 XYZ=  -63.5283  -16.6054   31.3696 Q=   -0.4001 A=    0.0000 R=    0.0000 C=    0.0000
 XYZ=  -66.6947  -11.4330   38.3367 Q=   -0.4006 A=    0.0000 R=    0.0000 C=    0.0000
 XYZ=  -69.1986  -20.5657   29.4171 Q=   -0.1196 A=    0.0000 R=    0.0000 C=    0.0000
 XYZ=  -72.3651  -18.6880   36.3843 Q=   -0.1200 A=    0.0000 R=    0.0000 C=    0.0000
 XYZ=  -65.9803  -13.0787   40.2602 Q=   -0.1180 A=    0.0000 R=    0.0000 C=    0.0000
 XYZ=  -77.5142  -21.2299   41.6489 Q=   -0.3212 A=    0.0000 R=    0.0000 C=    0.0000
 XYZ=  -74.3476  -18.0238   34.6815 Q=   -0.3229 A=    0.0000 R=    0.0000 C=    0.0000
 XYZ=  -63.9914  -12.4162   41.9609 Q=   -0.3170 A=    0.0000 R=    0.0000 C=    0.0000
 XYZ=  -71.6824  -14.0739   30.0112 Q=   -0.1088 A=    0.0000 R=    0.0000 C=    0.0000
 XYZ=  -74.8489  -13.9644   36.9784 Q=   -0.1094 A=    0.0000 R=    0.0000 C=    0.0000
 XYZ=  -69.7390  -13.3702   31.6366 Q=   -0.4049 A=    0.0000 R=    0.0000 C=    0.0000
 XYZ=  -72.9055  -14.6681   38.6039 Q=   -0.4038 A=    0.0000 R=    0.0000 C=    0.0000
 XYZ=  -65.4450  -20.2776   38.0351 Q=   -0.3988 A=    0.0000 R=    0.0000 C=    0.0000
 XYZ=  -66.9539  -21.6772   32.6325 Q=    0.2943 A=    0.0000 R=    0.0000 C=    0.0000
 XYZ=  -70.1204  -17.5764   39.5997 Q=    0.2945 A=    0.0000 R=    0.0000 C=    0.0000
 XYZ=  -65.0614  -16.0655   30.0722 Q=    0.2961 A=    0.0000 R=    0.0000 C=    0.0000
 XYZ=  -68.2280  -11.9729   37.0394 Q=    0.2961 A=    0.0000 R=    0.0000 C=    0.0000
 XYZ=  -68.2504  -18.7336   29.1652 Q=    0.3397 A=    0.0000 R=    0.0000 C=    0.0000
 XYZ=  -71.4169  -20.5201   36.1326 Q=    0.3395 A=    0.0000 R=    0.0000 C=    0.0000
 XYZ=  -63.7583  -13.1246   33.5400 Q=    0.3408 A=    0.0000 R=    0.0000 C=    0.0000
 XYZ=  -66.9248  -14.9137   40.5073 Q=    0.3411 A=    0.0000 R=    0.0000 C=    0.0000
 XYZ=  -72.6495  -15.9007   30.2312 Q=    0.3913 A=    0.0000 R=    0.0000 C=    0.0000
 XYZ=  -75.8160  -12.1376   37.1986 Q=    0.3915 A=    0.0000 R=    0.0000 C=    0.0000
 XYZ=  -69.1736  -14.6564   33.1717 Q=    0.3279 A=    0.0000 R=    0.0000 C=    0.0000
 XYZ=  -72.3401  -13.3820   40.1390 Q=    0.3274 A=    0.0000 R=    0.0000 C=    0.0000
 XYZ=  -66.0062  -18.9905   36.4991 Q=    0.3274 A=    0.0000 R=    0.0000 C=    0.0000
 XYZ=  -74.8233  -22.2148   45.2723 Q=   -0.3936 A=    0.0000 R=    0.0000 C=    0.0000
 XYZ=  -77.9900  -17.0389   52.2398 Q=   -0.3936 A=    0.0000 R=    0.0000 C=    0.0000
 XYZ=  -69.8612  -16.6053   45.3039 Q=   -0.4004 A=    0.0000 R=    0.0000 C=    0.0000
 XYZ=  -73.0278  -11.4330   52.2714 Q=   -0.4024 A=    0.0000 R=    0.0000 C=    0.0000
 XYZ=  -75.5316  -20.5656   43.3517 Q=   -0.1186 A=    0.0000 R=    0.0000 C=    0.0000
 XYZ=  -78.6982  -18.6880   50.3190 Q=   -0.1187 A=    0.0000 R=    0.0000 C=    0.0000
 XYZ=  -69.1468  -14.9597   47.2275 Q=   -0.1183 A=    0.0000 R=    0.0000 C=    0.0000
 XYZ=  -63.9048  -18.6863   50.3146 Q=   -0.1181 A=    0.0000 R=    0.0000 C=    0.0000
 XYZ=  -72.3134  -13.0787   54.1949 Q=   -0.1156 A=    0.0000 R=    0.0000 C=    0.0000
 XYZ=  -83.8471  -21.2300   55.5833 Q=   -0.3240 A=    0.0000 R=    0.0000 C=    0.0000
 XYZ=  -80.6806  -18.0237   48.6160 Q=   -0.3241 A=    0.0000 R=    0.0000 C=    0.0000
 XYZ=  -69.0602  -21.2298   55.5812 Q=   -0.3143 A=    0.0000 R=    0.0000 C=    0.0000
 XYZ=  -67.1579  -15.6221   48.9281 Q=   -0.3149 A=    0.0000 R=    0.0000 C=    0.0000
 XYZ=  -65.8937  -18.0239   48.6140 Q=   -0.3149 A=    0.0000 R=    0.0000 C=    0.0000
 XYZ=  -81.1820  -13.9644   50.9131 Q=   -0.1089 A=    0.0000 R=    0.0000 C=    0.0000
 XYZ=  -78.0155  -14.0739   43.9458 Q=   -0.1101 A=    0.0000 R=    0.0000 C=    0.0000
 XYZ=  -69.8347  -19.5723   53.5963 Q=   -0.1220 A=    0.0000 R=    0.0000 C=    0.0000
 XYZ=  -66.3835  -13.9647   50.9131 Q=   -0.1235 A=    0.0000 R=    0.0000 C=    0.0000
 XYZ=  -66.6681  -19.6813   46.6290 Q=   -0.1232 A=    0.0000 R=    0.0000 C=    0.0000
 XYZ=  -79.2385  -14.6680   52.5384 Q=   -0.4044 A=    0.0000 R=    0.0000 C=    0.0000
 XYZ=  -76.0720  -13.3703   45.5710 Q=   -0.4029 A=    0.0000 R=    0.0000 C=    0.0000
 XYZ=  -71.7781  -20.2776   51.9699 Q=   -0.3975 A=    0.0000 R=    0.0000 C=    0.0000
 XYZ=  -64.4400  -14.6699   52.5396 Q=   -0.3986 A=    0.0000 R=    0.0000 C=    0.0000
 XYZ=  -68.6116  -18.9761   45.0025 Q=   -0.3983 A=    0.0000 R=    0.0000 C=    0.0000
 XYZ=  -73.2869  -21.6772   46.5671 Q=    0.2947 A=    0.0000 R=    0.0000 C=    0.0000
 XYZ=  -76.4534  -17.5764   53.5344 Q=    0.2947 A=    0.0000 R=    0.0000 C=    0.0000
 XYZ=  -71.3945  -16.0655   44.0067 Q=    0.2962 A=    0.0000 R=    0.0000 C=    0.0000
 XYZ=  -74.5610  -11.9729   50.9740 Q=    0.2958 A=    0.0000 R=    0.0000 C=    0.0000
 XYZ=  -74.5834  -18.7336   43.0999 Q=    0.3393 A=    0.0000 R=    0.0000 C=    0.0000
 XYZ=  -77.7499  -20.5201   50.0671 Q=    0.3401 A=    0.0000 R=    0.0000 C=    0.0000
 XYZ=  -70.0913  -13.1246   47.4747 Q=    0.3410 A=    0.0000 R=    0.0000 C=    0.0000
 XYZ=  -73.2578  -14.9137   54.4419 Q=    0.3409 A=    0.0000 R=    0.0000 C=    0.0000
 XYZ=  -82.1490  -12.1376   51.1330 Q=    0.3906 A=    0.0000 R=    0.0000 C=    0.0000
 XYZ=  -78.9825  -15.9008   44.1658 Q=    0.3912 A=    0.0000 R=    0.0000 C=    0.0000
 XYZ=  -68.8600  -17.7486   53.3752 Q=    0.3950 A=    0.0000 R=    0.0000 C=    0.0000
 XYZ=  -67.3581  -12.1409   51.1342 Q=    0.3948 A=    0.0000 R=    0.0000 C=    0.0000
 XYZ=  -65.6935  -21.5051   46.4080 Q=    0.3947 A=    0.0000 R=    0.0000 C=    0.0000
 XYZ=  -64.1916  -15.8974   44.1669 Q=    0.3947 A=    0.0000 R=    0.0000 C=    0.0000
 XYZ=  -78.6731  -13.3820   54.0735 Q=    0.3276 A=    0.0000 R=    0.0000 C=    0.0000
 XYZ=  -75.5066  -14.6564   47.1062 Q=    0.3271 A=    0.0000 R=    0.0000 C=    0.0000
 XYZ=  -72.3392  -18.9905   50.4338 Q=    0.3268 A=    0.0000 R=    0.0000 C=    0.0000
 XYZ=  -63.8789  -13.3829   54.0756 Q=    0.3269 A=    0.0000 R=    0.0000 C=    0.0000
 XYZ=  -69.1727  -20.2631   43.4665 Q=    0.3270 A=    0.0000 R=    0.0000 C=    0.0000
 XYZ=  -64.8481  -10.0145   13.7797 Q=   -0.3231 A=    0.0000 R=    0.0000 C=    0.0000
 XYZ=  -65.3234   -5.8242   24.3708 Q=   -0.3990 A=    0.0000 R=    0.0000 C=    0.0000
 XYZ=  -66.0313   -7.4734   22.4502 Q=   -0.1175 A=    0.0000 R=    0.0000 C=    0.0000
 XYZ=  -68.0134   -6.8094   20.7474 Q=   -0.3228 A=    0.0000 R=    0.0000 C=    0.0000
 XYZ=  -71.1810  -10.0146   27.7141 Q=   -0.3230 A=    0.0000 R=    0.0000 C=    0.0000
 XYZ=  -68.5144   -2.7460   23.0478 Q=   -0.1152 A=    0.0000 R=    0.0000 C=    0.0000
 XYZ=  -65.3494   -2.8586   16.0766 Q=   -0.1109 A=    0.0000 R=    0.0000 C=    0.0000
 XYZ=  -66.5708   -3.4529   24.6707 Q=   -0.4035 A=    0.0000 R=    0.0000 C=    0.0000
 XYZ=  -63.7869   -6.3612   25.6656 Q=    0.2964 A=    0.0000 R=    0.0000 C=    0.0000
 XYZ=  -65.0835   -9.3054   22.1977 Q=    0.3404 A=    0.0000 R=    0.0000 C=    0.0000
 XYZ=  -69.4843   -0.9202   23.2638 Q=    0.3907 A=    0.0000 R=    0.0000 C=    0.0000
 XYZ=  -66.3164   -4.6854   16.2966 Q=    0.3918 A=    0.0000 R=    0.0000 C=    0.0000
 XYZ=  -66.0070   -2.1659   26.2049 Q=    0.3288 A=    0.0000 R=    0.0000 C=    0.0000
 XYZ=  -71.6568   -5.8235   38.3050 Q=   -0.3932 A=    0.0000 R=    0.0000 C=    0.0000
 XYZ=  -68.4904  -10.9994   31.3379 Q=   -0.3920 A=    0.0000 R=    0.0000 C=    0.0000
 XYZ=  -63.5283   -5.3901   31.3696 Q=   -0.4005 A=    0.0000 R=    0.0000 C=    0.0000
 XYZ=  -66.6947   -0.2176   38.3367 Q=   -0.4004 A=    0.0000 R=    0.0000 C=    0.0000
 XYZ=  -72.3651   -7.4727   36.3843 Q=   -0.1198 A=    0.0000 R=    0.0000 C=    0.0000
 XYZ=  -69.1986   -9.3503   29.4171 Q=   -0.1194 A=    0.0000 R=    0.0000 C=    0.0000
 XYZ=  -65.9803   -1.8633   40.2602 Q=   -0.1185 A=    0.0000 R=    0.0000 C=    0.0000
 XYZ=  -74.3476   -6.8084   34.6815 Q=   -0.3232 A=    0.0000 R=    0.0000 C=    0.0000
 XYZ=  -77.5142  -10.0145   41.6489 Q=   -0.3229 A=    0.0000 R=    0.0000 C=    0.0000
 XYZ=  -63.9914   -1.2009   41.9609 Q=   -0.3135 A=    0.0000 R=    0.0000 C=    0.0000
 XYZ=  -71.6824   -2.8586   30.0112 Q=   -0.1100 A=    0.0000 R=    0.0000 C=    0.0000
 XYZ=  -74.8489   -2.7491   36.9784 Q=   -0.1093 A=    0.0000 R=    0.0000 C=    0.0000
 XYZ=  -69.7390   -2.1549   31.6366 Q=   -0.4038 A=    0.0000 R=    0.0000 C=    0.0000
 XYZ=  -72.9055   -3.4528   38.6039 Q=   -0.4037 A=    0.0000 R=    0.0000 C=    0.0000
 XYZ=  -65.4450   -9.0622   38.0351 Q=   -0.3985 A=    0.0000 R=    0.0000 C=    0.0000
 XYZ=  -70.1204   -6.3611   39.5997 Q=    0.2945 A=    0.0000 R=    0.0000 C=    0.0000
 XYZ=  -66.9539  -10.4619   32.6325 Q=    0.2943 A=    0.0000 R=    0.0000 C=    0.0000
 XYZ=  -65.0614   -4.8501   30.0722 Q=    0.2962 A=    0.0000 R=    0.0000 C=    0.0000
 XYZ=  -68.2280   -0.7576   37.0394 Q=    0.2961 A=    0.0000 R=    0.0000 C=    0.0000
 XYZ=  -71.4169   -9.3048   36.1326 Q=    0.3394 A=    0.0000 R=    0.0000 C=    0.0000
 XYZ=  -68.2504   -7.5183   29.1652 Q=    0.3397 A=    0.0000 R=    0.0000 C=    0.0000
 XYZ=  -63.7583   -1.9093   33.5400 Q=    0.3410 A=    0.0000 R=    0.0000 C=    0.0000
 XYZ=  -66.9248   -3.6983   40.5073 Q=    0.3411 A=    0.0000 R=    0.0000 C=    0.0000
 XYZ=  -72.6495   -4.6854   30.2312 Q=    0.3910 A=    0.0000 R=    0.0000 C=    0.0000
 XYZ=  -75.8160   -0.9223   37.1986 Q=    0.3915 A=    0.0000 R=    0.0000 C=    0.0000
 XYZ=  -69.1736   -3.4410   33.1717 Q=    0.3278 A=    0.0000 R=    0.0000 C=    0.0000
 XYZ=  -72.3401   -2.1666   40.1390 Q=    0.3273 A=    0.0000 R=    0.0000 C=    0.0000
 XYZ=  -66.0062   -7.7752   36.4991 Q=    0.3274 A=    0.0000 R=    0.0000 C=    0.0000
 XYZ=  -77.9894   -5.8242   52.2400 Q=   -0.3989 A=    0.0000 R=    0.0000 C=    0.0000
 XYZ=  -74.8233  -10.9994   45.2723 Q=   -0.3946 A=    0.0000 R=    0.0000 C=    0.0000
 XYZ=  -69.8612   -5.3900   45.3039 Q=   -0.4003 A=    0.0000 R=    0.0000 C=    0.0000
 XYZ=  -73.0278   -0.2176   52.2714 Q=   -0.3998 A=    0.0000 R=    0.0000 C=    0.0000
 XYZ=  -78.6974   -7.4734   50.3193 Q=   -0.1174 A=    0.0000 R=    0.0000 C=    0.0000
 XYZ=  -75.5316   -9.3503   43.3517 Q=   -0.1179 A=    0.0000 R=    0.0000 C=    0.0000
 XYZ=  -69.1468   -3.7444   47.2275 Q=   -0.1183 A=    0.0000 R=    0.0000 C=    0.0000
 XYZ=  -63.9048   -7.4710   50.3146 Q=   -0.1184 A=    0.0000 R=    0.0000 C=    0.0000
 XYZ=  -72.3134   -1.8633   54.1949 Q=   -0.1226 A=    0.0000 R=    0.0000 C=    0.0000
 XYZ=  -80.6795   -6.8094   48.6165 Q=   -0.3227 A=    0.0000 R=    0.0000 C=    0.0000
 XYZ=  -83.8471  -10.0146   55.5833 Q=   -0.3229 A=    0.0000 R=    0.0000 C=    0.0000
 XYZ=  -67.1579   -4.4068   48.9281 Q=   -0.3152 A=    0.0000 R=    0.0000 C=    0.0000
 XYZ=  -65.8937   -6.8086   48.6140 Q=   -0.3149 A=    0.0000 R=    0.0000 C=    0.0000
 XYZ=  -69.0602  -10.0144   55.5812 Q=   -0.3168 A=    0.0000 R=    0.0000 C=    0.0000
 XYZ=  -81.1805   -2.7460   50.9170 Q=   -0.1151 A=    0.0000 R=    0.0000 C=    0.0000
 XYZ=  -78.0155   -2.8586   43.9458 Q=   -0.1108 A=    0.0000 R=    0.0000 C=    0.0000
 XYZ=  -66.3835   -2.7494   50.9131 Q=   -0.1227 A=    0.0000 R=    0.0000 C=    0.0000
 XYZ=  -66.6681   -8.4660   46.6290 Q=   -0.1234 A=    0.0000 R=    0.0000 C=    0.0000
 XYZ=  -69.8347   -8.3569   53.5963 Q=   -0.1225 A=    0.0000 R=    0.0000 C=    0.0000
 XYZ=  -79.2369   -3.4529   52.5399 Q=   -0.4033 A=    0.0000 R=    0.0000 C=    0.0000
 XYZ=  -76.0720   -2.1549   45.5710 Q=   -0.4043 A=    0.0000 R=    0.0000 C=    0.0000
 XYZ=  -64.4400   -3.4545   52.5396 Q=   -0.3986 A=    0.0000 R=    0.0000 C=    0.0000
 XYZ=  -68.6116   -7.7608   45.0025 Q=   -0.3985 A=    0.0000 R=    0.0000 C=    0.0000
 XYZ=  -71.7781   -9.0622   51.9699 Q=   -0.3987 A=    0.0000 R=    0.0000 C=    0.0000
 XYZ=  -76.4530   -6.3612   53.5348 Q=    0.2965 A=    0.0000 R=    0.0000 C=    0.0000
 XYZ=  -73.2869  -10.4619   46.5671 Q=    0.2951 A=    0.0000 R=    0.0000 C=    0.0000
 XYZ=  -71.3945   -4.8501   44.0067 Q=    0.2963 A=    0.0000 R=    0.0000 C=    0.0000
 XYZ=  -74.5610   -0.7576   50.9740 Q=    0.2969 A=    0.0000 R=    0.0000 C=    0.0000
 XYZ=  -77.7496   -9.3054   50.0669 Q=    0.3406 A=    0.0000 R=    0.0000 C=    0.0000
 XYZ=  -74.5834   -7.5182   43.0999 Q=    0.3392 A=    0.0000 R=    0.0000 C=    0.0000
 XYZ=  -70.0913   -1.9093   47.4747 Q=    0.3409 A=    0.0000 R=    0.0000 C=    0.0000
 XYZ=  -73.2578   -3.6984   54.4419 Q=    0.3420 A=    0.0000 R=    0.0000 C=    0.0000
 XYZ=  -82.1504   -0.9202   51.1330 Q=    0.3909 A=    0.0000 R=    0.0000 C=    0.0000
 XYZ=  -78.9825   -4.6854   44.1658 Q=    0.3920 A=    0.0000 R=    0.0000 C=    0.0000
 XYZ=  -67.3581   -0.9256   51.1342 Q=    0.3947 A=    0.0000 R=    0.0000 C=    0.0000
 XYZ=  -65.6935  -10.2898   46.4080 Q=    0.3948 A=    0.0000 R=    0.0000 C=    0.0000
 XYZ=  -64.1916   -4.6821   44.1669 Q=    0.3946 A=    0.0000 R=    0.0000 C=    0.0000
 XYZ=  -68.8600   -6.5332   53.3752 Q=    0.3952 A=    0.0000 R=    0.0000 C=    0.0000
 XYZ=  -78.6731   -2.1659   54.0741 Q=    0.3289 A=    0.0000 R=    0.0000 C=    0.0000
 XYZ=  -75.5066   -3.4410   47.1062 Q=    0.3282 A=    0.0000 R=    0.0000 C=    0.0000
 XYZ=  -63.8789   -2.1675   54.0756 Q=    0.3270 A=    0.0000 R=    0.0000 C=    0.0000
[...]
     Eigenvalues ---    1.50181   1.56374   1.69034
 RFO step:  Lambda=-6.76776458D-07 EMin= 4.42881857D-03
 Quartic linear search produced a step of  0.26002.
 Variable       Old X    -DE/DX   Delta X   Delta X   Delta X     New X
                                 (Linear)    (Quad)   (Total)
    X1        3.33020   0.00005  -0.00002   0.00066   0.00064   3.33084
    Y1        0.21433  -0.00004  -0.00010   0.00018   0.00008   0.21440
    Z1        3.48003   0.00008  -0.00007   0.00027   0.00020   3.48023
    X2        2.61366  -0.00005  -0.00009   0.00037   0.00027   2.61393
    Y2        1.86593  -0.00003  -0.00016   0.00036   0.00020   1.86613
    Z2        1.54510  -0.00009   0.00012   0.00029   0.00041   1.54551
    X3        2.08307   0.00004   0.00004   0.00012   0.00016   2.08323
    Y3       -2.15010   0.00031   0.00039   0.00027   0.00066  -2.14944
    Z3        3.77540  -0.00002  -0.00037  -0.00043  -0.00080   3.77460
    X4        4.83812  -0.00004  -0.00014   0.00035   0.00021   4.83832
    Y4        0.73517   0.00003  -0.00033   0.00010  -0.00023   0.73494
    Z4        4.76043   0.00001   0.00015   0.00058   0.00073   4.76116
    X5        3.56905   0.00000  -0.00028  -0.00013  -0.00041   3.56864
    Y5        3.66599   0.00001  -0.00011   0.00068   0.00057   3.66656
    Z5        1.32897  -0.00005   0.00013   0.00028   0.00041   1.32938
    X6        2.64650  -0.00006  -0.00007  -0.00054  -0.00062   2.64588
    Y6       -3.41888   0.00001   0.00025  -0.00025   0.00000  -3.41888
    Z6        5.27824   0.00006  -0.00038  -0.00060  -0.00099   5.27726
    X7        0.65484   0.00024   0.00010   0.00041   0.00051   0.65535
    Y7        1.24238   0.00019   0.00000   0.00020   0.00020   1.24258
    Z7       -0.15547   0.00005   0.00013   0.00029   0.00042  -0.15505
    X8        0.12979  -0.00006   0.00000  -0.00027  -0.00027   0.12953
    Y8       -2.84819   0.00004   0.00033  -0.00001   0.00031  -2.84788
    Z8        2.13741   0.00003  -0.00017  -0.00015  -0.00032   2.13709
    X9       -0.81022  -0.00003   0.00004  -0.00038  -0.00033  -0.81055
    Y9       -4.65259   0.00004   0.00045   0.00012   0.00057  -4.65202
    Z9        2.38353   0.00008   0.00031   0.00076   0.00107   2.38460
   X10       -0.65486  -0.00024  -0.00011  -0.00043  -0.00053  -0.65539
   Y10       -1.24237  -0.00019   0.00000  -0.00019  -0.00019  -1.24255
   Z10        0.15549  -0.00005  -0.00013  -0.00027  -0.00039   0.15510
   X11       -0.12982   0.00006  -0.00001   0.00025   0.00024  -0.12958
   Y11        2.84820  -0.00004  -0.00033   0.00003  -0.00030   2.84791
   Z11       -2.13738  -0.00003   0.00017   0.00017   0.00034  -2.13704
   X12        0.81019   0.00003  -0.00005   0.00035   0.00030   0.81049
   Y12        4.65260  -0.00004  -0.00045  -0.00010  -0.00055   4.65205
   Z12       -2.38352  -0.00008  -0.00031  -0.00074  -0.00105  -2.38457
   X13       -2.61366   0.00005   0.00009  -0.00037  -0.00027  -2.61394
   Y13       -1.86591   0.00003   0.00016  -0.00036  -0.00020  -1.86611
   Z13       -1.54509   0.00009  -0.00012  -0.00029  -0.00041  -1.54550
   X14       -3.56904   0.00000   0.00029   0.00015   0.00043  -3.56861
   Y14       -3.66599  -0.00001   0.00010  -0.00069  -0.00059  -3.66658
   Z14       -1.32901   0.00005  -0.00013  -0.00030  -0.00043  -1.32944
   X15       -2.08307  -0.00005  -0.00004  -0.00012  -0.00016  -2.08323
   Y15        2.15010  -0.00031  -0.00039  -0.00027  -0.00066   2.14944
   Z15       -3.77539   0.00002   0.00037   0.00043   0.00080  -3.77460
   X16       -2.64645   0.00007   0.00008   0.00056   0.00064  -2.64581
   Y16        3.41883  -0.00001  -0.00025   0.00024  -0.00002   3.41881
   Z16       -5.27828  -0.00006   0.00038   0.00059   0.00097  -5.27732
   X17       -3.33019  -0.00006   0.00003  -0.00065  -0.00062  -3.33081
   Y17       -0.21433   0.00004   0.00010  -0.00019  -0.00009  -0.21442
   Z17       -3.48004  -0.00008   0.00006  -0.00028  -0.00022  -3.48025
   X18       -4.83802   0.00004   0.00015  -0.00029  -0.00015  -4.83816
   Y18       -0.73521  -0.00003   0.00033  -0.00014   0.00019  -0.73502
   Z18       -4.76050  -0.00001  -0.00015  -0.00063  -0.00079  -4.76129
         Item               Value     Threshold  Converged?
 Maximum Force            0.000311     0.000450     YES
 RMS     Force            0.000095     0.000300     YES
 Maximum Displacement     0.001070     0.001800     YES
 RMS     Displacement     0.000502     0.001200     YES
 Predicted change in Energy=-4.735572D-07
 Optimization completed.
    -- Stationary point found.
 Lowest energy point so far.  Saving SCF results.
 GradGradGradGradGradGradGradGradGradGradGradGradGradGradGradGradGradGrad

 Largest change from initial coordinates is atom    9       0.005 Angstoms.
 Leave Link  103 at Mon Nov 28 12:26:56 2016, MaxMem=   805306368 cpu:         0.0
 (Enter /share/apps/gaussian/g09_D01/g09/l202.exe)
                          Input orientation:                          
 ---------------------------------------------------------------------
 Center     Atomic      Atomic             Coordinates (Angstroms)
 Number     Number       Type             X           Y           Z
 ---------------------------------------------------------------------
      1          6           0        1.762267    0.113418    1.841552
      2          6           0        1.383088    0.987407    0.817630
      3          6           0        1.102313   -1.137786    1.997857
      4          1           0        2.560220    0.389035    2.519110
      5          1           0        1.888660    1.939959    0.703261
      6          1           0        1.400467   -1.809191    2.793127
      7          6           0        0.346525    0.657440   -0.082270
      8          6           0        0.068684   -1.507198    1.131066
      9          1           0       -0.428752   -2.462044    1.261309
     10          6           0       -0.346537   -0.657432    0.082282
     11          6           0       -0.068700    1.507204   -1.131051
     12          1           0        0.428733    2.462050   -1.261305
     13          6           0       -1.383092   -0.987399   -0.817627
     14          1           0       -1.888655   -1.939958   -0.703282
     15          6           0       -1.102316    1.137785   -1.997853
     16          1           0       -1.400443    1.809167   -2.793147
     17          6           0       -1.762260   -0.113420   -1.841555
     18          1           0       -2.560169   -0.389059   -2.519151
 ---------------------------------------------------------------------
                    Distance matrix (angstroms):
                    1          2          3          4          5
     1  C    0.000000
     2  C    1.398588   0.000000
     3  C    1.423194   2.447083   0.000000
     4  H    1.082487   2.153769   2.174483   0.000000
     5  H    2.155907   1.084453   3.430282   2.480659   0.000000
     6  H    2.175504   3.424010   1.082651   2.500462   4.319953
     7  C    2.449771   1.411794   2.849734   3.426319   2.154087
     8  C    2.449369   2.837067   1.398635   3.424925   3.921507
     9  H    3.430780   3.921521   2.154141   4.317947   5.005941
    10  C    2.852420   2.497566   2.449354   3.934776   3.482551
    11  C    3.759182   2.485003   4.261140   4.635213   2.717211
    12  H    4.113649   2.721643   4.902517   4.809591   2.502696
    13  C    4.263369   3.771694   3.758564   5.345848   4.646169
    14  H    4.901200   4.646175   4.109200   5.966616   5.594660
    15  C    4.898591   3.758562   5.099442   5.863254   4.109189
    16  H    5.861633   4.632608   6.156464   6.776703   4.802101
    17  C    5.102845   4.263368   4.898591   6.160495   4.901191
    18  H    6.160492   5.345844   5.863252   7.225502   5.966602
                    6          7          8          9         10
     6  H    0.000000
     7  C    3.932298   0.000000
     8  C    2.151113   2.497006   0.000000
     9  H    2.473605   3.483883   1.084499   0.000000
    10  C    3.424507   1.495427   1.412253   2.157195   0.000000
    11  C    5.343791   1.412251   3.771295   4.648436   2.497002
    12  H    5.968768   2.157197   4.648441   5.598711   3.483883
    13  C    4.632611   2.497563   2.485005   2.721639   1.411793
    14  H    4.802113   3.482551   2.717221   2.502701   2.154091
    15  C    6.156466   2.449353   4.261139   4.902509   2.849731
    16  H    7.221085   3.424504   5.343787   5.968756   3.932292
    17  C    5.861634   2.852418   3.759183   4.113642   2.449770
    18  H    6.776703   3.934771   4.635212   4.809583   3.426316
                   11         12         13         14         15
    11  C    0.000000
    12  H    1.084498   0.000000
    13  C    2.837060   3.921512   0.000000
    14  H    3.921498   5.005931   1.084452   0.000000
    15  C    1.398634   2.154133   2.447075   3.430268   0.000000
    16  H    2.151113   2.473597   3.423998   4.319933   1.082648
    17  C    2.449365   3.430771   1.398584   2.155895   1.423190
    18  H    3.424917   4.317932   2.153765   2.480645   2.174475
                   16         17         18
    16  H    0.000000
    17  C    2.175495   0.000000
    18  H    2.500447   1.082483   0.000000
 Symmetry turned off by external request.
 Stoichiometry    C10H8
 Framework group  C1[X(C10H8)]
 Deg. of freedom    48
 Full point group                 C1      NOp   1
 Rotational constants (GHZ):      3.0468870      1.2188001      0.8705624
 Leave Link  202 at Mon Nov 28 12:26:56 2016, MaxMem=   805306368 cpu:         0.0
 (Enter /share/apps/gaussian/g09_D01/g09/l601.exe)
 Copying SCF densities to generalized density rwf, IOpCl= 0 IROHF=0.

 **********************************************************************

            Population analysis using the CI density.

 **********************************************************************

 Alpha  occ. eigenvalues --  -10.30371 -10.30273 -10.29273 -10.29269 -10.29115
 Alpha  occ. eigenvalues --  -10.29111 -10.29042 -10.29035 -10.28932 -10.28905
 Alpha  occ. eigenvalues --   -1.01845  -0.96636  -0.92292  -0.88452  -0.86283
 Alpha  occ. eigenvalues --   -0.77110  -0.75655  -0.73272  -0.65359  -0.65279
 Alpha  occ. eigenvalues --   -0.63454  -0.58342  -0.57514  -0.55388  -0.55356
 Alpha  occ. eigenvalues --   -0.53381  -0.52618  -0.50203  -0.47239  -0.45791
 Alpha  occ. eigenvalues --   -0.45371  -0.41719  -0.36053  -0.32980
 Alpha virt. eigenvalues --   -0.02194   0.00980   0.07134   0.13188   0.15405
 Alpha virt. eigenvalues --    0.17174   0.18421   0.23651   0.23696   0.23701
 Alpha virt. eigenvalues --    0.23945   0.24696   0.27187   0.29089   0.31947
 Alpha virt. eigenvalues --    0.34203   0.36000   0.37061   0.40222   0.43621
 Alpha virt. eigenvalues --    0.53980   0.56054   0.59859   0.66153   0.68393
 Alpha virt. eigenvalues --    0.71335   0.72889   0.76656   0.76818   0.77693
 Alpha virt. eigenvalues --    0.78321   0.80283   0.81444   0.83137   0.83260
 Alpha virt. eigenvalues --    0.85132   0.85148   0.88230   0.88923   0.89769
 Alpha virt. eigenvalues --    0.90864   0.93580   0.95570   1.02716   1.02969
 Alpha virt. eigenvalues --    1.04271   1.08370   1.08479   1.09866   1.12694
 Alpha virt. eigenvalues --    1.21930   1.22754   1.23824   1.31899   1.37022
 Alpha virt. eigenvalues --    1.38464   1.38586   1.47885   1.48226   1.48261
 Alpha virt. eigenvalues --    1.55464   1.56237   1.56388   1.58359   1.62777
 Alpha virt. eigenvalues --    1.64230   1.81554   1.94557   1.95018   1.99883
 Alpha virt. eigenvalues --    2.46705   2.53365
          Condensed to atoms (all electrons):
               1          2          3          4          5          6
     1  C    5.254791   0.436464   0.401244   0.391841  -0.032818  -0.035528
     2  C    0.436464   5.224321  -0.090648  -0.035545   0.393475   0.002954
     3  C    0.401244  -0.090648   5.249230  -0.036069   0.002840   0.390600
     4  H    0.391841  -0.035545  -0.036069   0.457213  -0.002674  -0.002383
     5  H   -0.032818   0.393475   0.002840  -0.002674   0.446388  -0.000034
     6  H   -0.035528   0.002954   0.390600  -0.002383  -0.000034   0.446320
     7  C   -0.094346   0.428352  -0.004297   0.003224  -0.041379  -0.000083
     8  C   -0.092476  -0.012771   0.438855   0.003036  -0.000124  -0.034655
     9  H    0.002767  -0.000113  -0.031738  -0.000034   0.000002  -0.002610
    10  C   -0.003852  -0.062154  -0.094685  -0.000092   0.002670   0.003165
    11  C    0.003242  -0.068073   0.000104  -0.000048  -0.001093   0.000000
    12  H    0.000072  -0.001065   0.000004  -0.000001   0.002614   0.000000
    13  C    0.000129   0.003014   0.003221   0.000000  -0.000054  -0.000047
    14  H    0.000004  -0.000054   0.000073   0.000000   0.000000  -0.000001
    15  C   -0.000112   0.003221   0.000000   0.000000   0.000073   0.000000
    16  H    0.000000  -0.000047   0.000000   0.000000  -0.000001   0.000000
    17  C    0.000000   0.000129  -0.000112   0.000000   0.000004   0.000000
    18  H    0.000000   0.000000   0.000000   0.000000   0.000000   0.000000
               7          8          9         10         11         12
     1  C   -0.094346  -0.092476   0.002767  -0.003852   0.003242   0.000072
     2  C    0.428352  -0.012771  -0.000113  -0.062154  -0.068073  -0.001065
     3  C   -0.004297   0.438855  -0.031738  -0.094685   0.000104   0.000004
     4  H    0.003224   0.003036  -0.000034  -0.000092  -0.000048  -0.000001
     5  H   -0.041379  -0.000124   0.000002   0.002670  -0.001093   0.002614
     6  H   -0.000083  -0.034655  -0.002610   0.003165   0.000000   0.000000
     7  C    5.207022  -0.060679   0.002571   0.349155   0.423134  -0.040792
     8  C   -0.060679   5.231377   0.392734   0.423152   0.003008  -0.000053
     9  H    0.002571   0.392734   0.435804  -0.040788  -0.000053   0.000000
    10  C    0.349155   0.423152  -0.040788   5.207025  -0.060669   0.002570
    11  C    0.423134   0.003008  -0.000053  -0.060669   5.231370   0.392732
    12  H   -0.040792  -0.000053   0.000000   0.002570   0.392732   0.435773
    13  C   -0.062143  -0.068073  -0.001065   0.428329  -0.012771  -0.000113
    14  H    0.002669  -0.001094   0.002614  -0.041385  -0.000124   0.000002
    15  C   -0.094685   0.000104   0.000004  -0.004297   0.438855  -0.031731
    16  H    0.003164   0.000000   0.000000  -0.000083  -0.034649  -0.002610
    17  C   -0.003853   0.003241   0.000072  -0.094344  -0.092484   0.002767
    18  H   -0.000092  -0.000048  -0.000001   0.003223   0.003036  -0.000034
              13         14         15         16         17         18
     1  C    0.000129   0.000004  -0.000112   0.000000   0.000000   0.000000
     2  C    0.003014  -0.000054   0.003221  -0.000047   0.000129   0.000000
     3  C    0.003221   0.000073   0.000000   0.000000  -0.000112   0.000000
     4  H    0.000000   0.000000   0.000000   0.000000   0.000000   0.000000
     5  H   -0.000054   0.000000   0.000073  -0.000001   0.000004   0.000000
     6  H   -0.000047  -0.000001   0.000000   0.000000   0.000000   0.000000
     7  C   -0.062143   0.002669  -0.094685   0.003164  -0.003853  -0.000092
     8  C   -0.068073  -0.001094   0.000104   0.000000   0.003241  -0.000048
     9  H   -0.001065   0.002614   0.000004   0.000000   0.000072  -0.000001
    10  C    0.428329  -0.041385  -0.004297  -0.000083  -0.094344   0.003223
    11  C   -0.012771  -0.000124   0.438855  -0.034649  -0.092484   0.003036
    12  H   -0.000113   0.000002  -0.031731  -0.002610   0.002767  -0.000034
    13  C    5.224301   0.393476  -0.090658   0.002953   0.436472  -0.035539
    14  H    0.393476   0.446378   0.002840  -0.000034  -0.032813  -0.002674
    15  C   -0.090658   0.002840   5.249160   0.390593   0.401257  -0.036057
    16  H    0.002953  -0.000034   0.390593   0.446215  -0.035517  -0.002382
    17  C    0.436472  -0.032813   0.401257  -0.035517   5.254702   0.391835
    18  H   -0.035539  -0.002674  -0.036057  -0.002382   0.391835   0.457100
 Mulliken charges:
               1
     1  C   -0.231420
     2  C   -0.221460
     3  C   -0.228623
     4  H    0.221531
     5  H    0.230112
     6  H    0.232301
     7  C   -0.016942
     8  C   -0.225538
     9  H    0.239833
    10  C   -0.016939
    11  C   -0.225517
    12  H    0.239863
    13  C   -0.221432
    14  H    0.230121
    15  C   -0.228566
    16  H    0.232398
    17  C   -0.231356
    18  H    0.221633
 Sum of Mulliken charges =   0.00000
 Mulliken charges with hydrogens summed into heavy atoms:
               1
     1  C   -0.009889
     2  C    0.008652
     3  C    0.003679
     7  C   -0.016942
     8  C    0.014295
    10  C   -0.016939
    11  C    0.014346
    13  C    0.008689
    15  C    0.003832
    17  C   -0.009723
 Electronic spatial extent (au):  <R**2>=           1306.0216
 Charge=              0.0000 electrons
 Dipole moment (field-independent basis, Debye):
    X=             -0.0022    Y=              0.0007    Z=             -0.0042  Tot=              0.0048
 Quadrupole moment (field-independent basis, Debye-Ang):
   XX=            -56.6864   YY=            -51.4419   ZZ=            -55.3750
   XY=              4.5774   XZ=              6.0479   YZ=             -4.6324
 Traceless Quadrupole moment (field-independent basis, Debye-Ang):
   XX=             -2.1853   YY=              3.0592   ZZ=             -0.8739
   XY=              4.5774   XZ=              6.0479   YZ=             -4.6324
 Octapole moment (field-independent basis, Debye-Ang**2):
  XXX=             -0.0108  YYY=              0.0039  ZZZ=             -0.0293  XYY=             -0.0031
  XXY=              0.0004  XXZ=             -0.0117  XZZ=             -0.0143  YZZ=              0.0054
  YYZ=             -0.0076  XYZ=              0.0007
 Hexadecapole moment (field-independent basis, Debye-Ang**3):
 XXXX=           -554.1016 YYYY=           -429.0626 ZZZZ=           -751.9086 XXXY=             -3.9137
 XXXZ=           -220.4802 YYYX=             -1.7990 YYYZ=             87.3141 ZZZX=           -201.9101
 ZZZY=             83.0724 XXYY=           -159.1973 XXZZ=           -181.0216 YYZZ=           -182.6808
 XXYZ=             46.2776 YYXZ=            -76.0214 ZZXY=            -20.6359
 N-N= 2.922680881514D+02 E-N=-1.798933940775D+03  KE= 3.801776930319D+02
 No NMR shielding tensors so no spin-rotation constants.
 Leave Link  601 at Mon Nov 28 12:26:56 2016, MaxMem=   805306368 cpu:         0.3
 (Enter /share/apps/gaussian/g09_D01/g09/l9999.exe)

 Test job not archived.
 1\1\GINC-NXN37\FOpt\RwB97XD TD-FC\3-21G\C10H8\BTX156\28-Nov-2016\0\\#p
  TD(Root=1,NStates=1) wb97xd 3-21G nosymm opt charge density=current\\
 naphthalene222\\0,1\C,1.762267229,0.1134178122,1.8415522075\C,1.383088
 2562,0.9874067932,0.8176304544\C,1.1023132969,-1.1377858964,1.99785716
 25\H,2.560220377,0.389034567,2.5191097956\H,1.8886601836,1.9399585061,
 0.7032605211\H,1.4004665288,-1.8091912394,2.7931266176\C,0.3465254256,
 0.6574404003,-0.0822699544\C,0.0686841071,-1.5071976033,1.1310664765\H
 ,-0.4287516477,-2.4620440371,1.2613093358\C,-0.3465369814,-0.657432164
 7,0.0822817491\C,-0.0687001587,1.5072044998,-1.13105076\H,0.4287327346
 ,2.4620502397,-1.2613050893\C,-1.3830918214,-0.987399172,-0.8176269222
 \H,-1.8886546718,-1.9399577732,-0.7032819529\C,-1.10231559,1.137784738
 8,-1.9978528311\H,-1.4004431051,1.8091670988,-2.7931472333\C,-1.762260
 3671,-0.1134200665,-1.841555315\H,-2.5601691327,-0.3890588396,-2.51915
 05836\\Version=ES64L-G09RevD.01\HF=-548.5456782\RMSD=6.981e-09\RMSF=9.
 520e-05\Dipole=-0.0008521,0.0002849,-0.0016457\Quadrupole=-1.624736,2.
 2744652,-0.6497292,3.4032089,4.4965025,-3.4440781\PG=C01 [X(C10H8)]\\@


 RESEARCH IS WHAT I AM DOING WHEN I DON'T KNOW WHAT I AM DOING.
     -- WERNER VON BRAUN
 Job cpu time:       0 days  0 hours  7 minutes 30.4 seconds.
 File lengths (MBytes):  RWF=     23 Int=      0 D2E=      0 Chk=      6 Scr=      1
 Normal termination of Gaussian 09 at Mon Nov 28 12:26:56 2016.
