 DBCSR| Multiplication driver                                                SMM
 DBCSR| Multrec recursion limit                                              512
 DBCSR| Multiplication stack size                                           1000
 DBCSR| Maximum elements for images                                    UNLIMITED
 DBCSR| Multiplication size stacks                                             3
 DBCSR| Use MPI memory allocation                                              T
 DBCSR| Use RMA algorithm                                                      F
 DBCSR| Use Communication thread                                               T
 DBCSR| Communication thread load                                             87


  **** **** ******  **  PROGRAM STARTED AT               2017-01-24 14:22:52.719
 ***** ** ***  *** **   PROGRAM STARTED ON                                  nxn7
 **    ****   ******    PROGRAM STARTED BY                                btx156
 ***** **    ** ** **   PROGRAM PROCESS ID                                 30698
  **** **  *******  **  PROGRAM STARTED IN /data/home/btx156/cp2k/2HC/single_poi
                                           nt_structure1/super

 CP2K| version string:                    CP2K version 2.7 (Development Version)
 CP2K| source code revision number:                                  git:6662250
 CP2K| cp2kflags: omp fftw3 parallel mpi2 scalapack
 CP2K| is freely available from                             http://www.cp2k.org/
 CP2K| Program compiled at                          Wed Jul 22 12:28:41 BST 2015
 CP2K| Program compiled on                                                 dn107
 CP2K| Program compiled for                              Linux-x86-64-intel-host
 CP2K| Data directory path             /data/home/aaw643/Projects/cp2k/cp2k/data
 CP2K| Input file name                                                   cp2k.in
 
 GLOBAL| Force Environment number                                              1
 GLOBAL| Basis set file name                    /data/home/btx156/cp2k/POTENTIAL
 GLOBAL| MM Potential file name                                     MM_POTENTIAL
 GLOBAL| Coordinate file name                                      __STD_INPUT__
 GLOBAL| Method name                                                        CP2K
 GLOBAL| Project name                                             structure1Mull
 GLOBAL| Preferred FFT library                                             FFTW3
 GLOBAL| Preferred diagonalization lib.                                       SL
 GLOBAL| Run type                                                         ENERGY
 GLOBAL| All-to-all communication in single precision                          F
 GLOBAL| FFTs using library dependent lengths                                  F
 GLOBAL| Global print level                                               MEDIUM
 GLOBAL| Total number of message passing processes                            64
 GLOBAL| Number of threads for this process                                    1
 GLOBAL| This output is from process                                           0

 MEMORY| system memory details [Kb]
 MEMORY|                        rank 0           min           max       average
 MEMORY| MemTotal             65942532      65942532      65942536      65942535
 MEMORY| MemFree              56747380      56743316      62075616      59402885
 MEMORY| Buffers                258220        255980        258220        257265
 MEMORY| Cached                4849664        884432       5004052       2906741
 MEMORY| Slab                   335652        216696        338196        276871
 MEMORY| SReclaimable           271744        155644        276700        214951
 MEMORY| MemLikelyFree        62127008      62127008      63376128      62781842


 *** Fundamental physical constants (SI units) ***

 *** Literature: B. J. Mohr and B. N. Taylor,
 ***             CODATA recommended values of the fundamental physical
 ***             constants: 2006, Web Version 5.1
 ***             http://physics.nist.gov/constants

 Speed of light in vacuum [m/s]                             2.99792458000000E+08
 Magnetic constant or permeability of vacuum [N/A**2]       1.25663706143592E-06
 Electric constant or permittivity of vacuum [F/m]          8.85418781762039E-12
 Planck constant (h) [J*s]                                  6.62606896000000E-34
 Planck constant (h-bar) [J*s]                              1.05457162825177E-34
 Elementary charge [C]                                      1.60217648700000E-19
 Electron mass [kg]                                         9.10938215000000E-31
 Electron g factor [ ]                                     -2.00231930436220E+00
 Proton mass [kg]                                           1.67262163700000E-27
 Fine-structure constant                                    7.29735253760000E-03
 Rydberg constant [1/m]                                     1.09737315685270E+07
 Avogadro constant [1/mol]                                  6.02214179000000E+23
 Boltzmann constant [J/K]                                   1.38065040000000E-23
 Atomic mass unit [kg]                                      1.66053878200000E-27
 Bohr radius [m]                                            5.29177208590000E-11

 *** Conversion factors ***

 [u] -> [a.u.]                                              1.82288848426455E+03
 [Angstrom] -> [Bohr] = [a.u.]                              1.88972613288564E+00
 [a.u.] = [Bohr] -> [Angstrom]                              5.29177208590000E-01
 [a.u.] -> [s]                                              2.41888432650478E-17
 [a.u.] -> [fs]                                             2.41888432650478E-02
 [a.u.] -> [J]                                              4.35974393937059E-18
 [a.u.] -> [N]                                              8.23872205491840E-08
 [a.u.] -> [K]                                              3.15774647902944E+05
 [a.u.] -> [kJ/mol]                                         2.62549961709828E+03
 [a.u.] -> [kcal/mol]                                       6.27509468713739E+02
 [a.u.] -> [Pa]                                             2.94210107994716E+13
 [a.u.] -> [bar]                                            2.94210107994716E+08
 [a.u.] -> [atm]                                            2.90362800883016E+08
 [a.u.] -> [eV]                                             2.72113838565563E+01
 [a.u.] -> [Hz]                                             6.57968392072181E+15
 [a.u.] -> [1/cm] (wave numbers)                            2.19474631370540E+05
 [a.u./Bohr**2] -> [1/cm]                                   5.14048714338585E+03
 

 CELL_TOP| Volume [angstrom^3]:                                        11213.093
 CELL_TOP| Vector a [angstrom    24.240     0.000     0.000    |a| =      24.240
 CELL_TOP| Vector b [angstrom     0.000    20.570     0.000    |b| =      20.570
 CELL_TOP| Vector c [angstrom   -10.944     0.000    22.488    |c| =      25.010
 CELL_TOP| Angle (b,c), alpha [degree]:                                   90.000
 CELL_TOP| Angle (a,c), beta  [degree]:                                  115.950
 CELL_TOP| Angle (a,b), gamma [degree]:                                   90.000
 CELL_TOP| Numerically orthorhombic:                                          NO
 
 GENERATE|  Preliminary Number of Bonds generated:                             0
 GENERATE|  Achieved consistency in connectivity generation.

 CELL| Volume [angstrom^3]:                                            11213.093
 CELL| Vector a [angstrom]:      24.240     0.000     0.000    |a| =      24.240
 CELL| Vector b [angstrom]:       0.000    20.570     0.000    |b| =      20.570
 CELL| Vector c [angstrom]:     -10.944     0.000    22.488    |c| =      25.010
 CELL| Angle (b,c), alpha [degree]:                                       90.000
 CELL| Angle (a,c), beta  [degree]:                                      115.950
 CELL| Angle (a,b), gamma [degree]:                                       90.000
 CELL| Numerically orthorhombic:                                              NO

 CELL_REF| Volume [angstrom^3]:                                        11213.093
 CELL_REF| Vector a [angstrom    24.240     0.000     0.000    |a| =      24.240
 CELL_REF| Vector b [angstrom     0.000    20.570     0.000    |b| =      20.570
 CELL_REF| Vector c [angstrom   -10.944     0.000    22.488    |c| =      25.010
 CELL_REF| Angle (b,c), alpha [degree]:                                   90.000
 CELL_REF| Angle (a,c), beta  [degree]:                                  115.950
 CELL_REF| Angle (a,b), gamma [degree]:                                   90.000
 CELL_REF| Numerically orthorhombic:                                          NO

 *******************************************************************************
 *******************************************************************************
 **                                                                           **
 **     #####                         ##              ##                      **
 **    ##   ##            ##          ##              ##                      **
 **   ##     ##                       ##            ######                    **
 **   ##     ##  ##   ##  ##   #####  ##  ##   ####   ##    #####    #####    **
 **   ##     ##  ##   ##  ##  ##      ## ##   ##      ##   ##   ##  ##   ##   **
 **   ##  ## ##  ##   ##  ##  ##      ####     ###    ##   ######   ######    **
 **    ##  ###   ##   ##  ##  ##      ## ##      ##   ##   ##       ##        **
 **     #######   #####   ##   #####  ##  ##  ####    ##    #####   ##        **
 **           ##                                                    ##        **
 **                                                                           **
 **                                                ... make the atoms dance   **
 **                                                                           **
 **            Copyright (C) by CP2K Developers Group (2000 - 2015)           **
 **                                                                           **
 *******************************************************************************

 DFT| Spin restricted Kohn-Sham (RKS) calculation                            RKS
 DFT| Multiplicity                                                             1
 DFT| Number of spin states                                                    1
 DFT| Charge                                                                   0
 DFT| Self-interaction correction (SIC)                                       NO
 DFT| Cutoffs: density                                              1.000000E-10
 DFT|          gradient                                             1.000000E-10
 DFT|          tau                                                  1.000000E-10
 DFT|          cutoff_smoothing_range                               0.000000E+00
 DFT| XC density smoothing                                                  NONE
 DFT| XC derivatives                                                          PW
 FUNCTIONAL| ROUTINE=NEW
 FUNCTIONAL| PBE:
 FUNCTIONAL| J.P.Perdew, K.Burke, M.Ernzerhof, Phys. Rev. Letter, vol. 77, n 18,
 FUNCTIONAL|  pp. 3865-3868, (1996){spin unpolarized}
 vdW POTENTIAL|                                                   Pair Potential
 vdW POTENTIAL|                   Potential Form: S. Grimme, JCC 27: 1787 (2006)
 vdW POTENTIAL|                   Cutoff Radius [Bohr]:                    20.00
 vdW POTENTIAL|                   Scaling Factor:                         0.7500
 vdW POTENTIAL|                   Exp Prefactor for Damping:                20.0
 vdW PARAMETER|  Atom=C    C6[J*nm^6*mol^-1]=  1.7500         r(vdW)[A]=  1.4520
 vdW PARAMETER|  Atom=H    C6[J*nm^6*mol^-1]=  0.1400         r(vdW)[A]=  1.0010
 vdW PARAMETER|  Atom=N    C6[J*nm^6*mol^-1]=  1.2300         r(vdW)[A]=  1.3970
 vdW PARAMETER|  Atom=O    C6[J*nm^6*mol^-1]=  0.7000         r(vdW)[A]=  1.3420

 QS| Method:                                                                 GPW
 QS| Density plane wave grid type                        NON-SPHERICAL FULLSPACE
 QS| Number of grid levels:                                                    4
 QS| Density cutoff [a.u.]:                                                100.0
 QS| Multi grid cutoff [a.u.]: 1) grid level                               100.0
 QS|                           2) grid level                                33.3
 QS|                           3) grid level                                11.1
 QS|                           4) grid level                                 3.7
 QS| Grid level progression factor:                                          3.0
 QS| Relative density cutoff [a.u.]:                                        15.0
 QS| Consistent realspace mapping and integration 
 QS| Interaction thresholds: eps_pgf_orb:                                3.2E-04
 QS|                         eps_filter_matrix:                          0.0E+00
 QS|                         eps_core_charge:                            1.0E-09
 QS|                         eps_rho_gspace:                             1.0E-07
 QS|                         eps_rho_rspace:                             1.0E-07
 QS|                         eps_gvg_rspace:                             3.2E-04
 QS|                         eps_ppl:                                    1.0E-02
 QS|                         eps_ppnl:                                   3.2E-06


 ATOMIC KIND INFORMATION

  1. Atomic kind: C                                     Number of atoms:     544

     Orbital Basis Set                                              DZVP-GTH-PBE

       Number of orbital shell sets:                                           2
       Number of orbital shells:                                               5
       Number of primitive Cartesian functions:                                5
       Number of Cartesian basis functions:                                   14
       Number of spherical basis functions:                                   13
       Norm type:                                                              2

       Normalised Cartesian orbitals:

                        Set   Shell   Orbital            Exponent    Coefficient

                          1       1    2s                4.365761       0.317724
                                                         1.274963      -0.017959
                                                         0.405288      -0.256998
                                                         0.117272      -0.054292

                          1       2    3s                4.365761       0.000000
                                                         1.274963       0.000000
                                                         0.405288       0.000000
                                                         0.117272       0.142825

                          1       3    3px               4.365761      -0.777347
                                                         1.274963      -0.529750
                                                         0.405288      -0.219987
                                                         0.117272      -0.039472
                          1       3    3py               4.365761      -0.777347
                                                         1.274963      -0.529750
                                                         0.405288      -0.219987
                                                         0.117272      -0.039472
                          1       3    3pz               4.365761      -0.777347
                                                         1.274963      -0.529750
                                                         0.405288      -0.219987
                                                         0.117272      -0.039472

                          1       4    4px               4.365761       0.000000
                                                         1.274963       0.000000
                                                         0.405288       0.000000
                                                         0.117272       0.097821
                          1       4    4py               4.365761       0.000000
                                                         1.274963       0.000000
                                                         0.405288       0.000000
                                                         0.117272       0.097821
                          1       4    4pz               4.365761       0.000000
                                                         1.274963       0.000000
                                                         0.405288       0.000000
                                                         0.117272       0.097821

                          2       1    3dx2              0.600000       0.673247
                          2       1    3dxy              0.600000       1.166097
                          2       1    3dxz              0.600000       1.166097
                          2       1    3dy2              0.600000       0.673247
                          2       1    3dyz              0.600000       1.166097
                          2       1    3dz2              0.600000       0.673247

     Potential information for                                        GTH-PBE-q4

       Description:                       Goedecker-Teter-Hutter pseudopotential
                                           Goedecker et al., PRB 54, 1703 (1996)
                                          Hartwigsen et al., PRB 58, 3641 (1998)
                                                      Krack, TCA 114, 145 (2005)

       Gaussian exponent of the core charge distribution:               4.364419
       Electronic configuration (s p d ...):                               2   2

       Parameters of the local part of the GTH pseudopotential:

                          rloc        C1          C2          C3          C4
                        0.338471   -8.803674    1.339211

       Parameters of the non-local part of the GTH pseudopotential:

                   l      r(l)      h(i,j,l)

                   0    0.302576    9.622487
                   1    0.291507

  2. Atomic kind: H                                     Number of atoms:     544

     Orbital Basis Set                                              DZVP-GTH-PBE

       Number of orbital shell sets:                                           2
       Number of orbital shells:                                               3
       Number of primitive Cartesian functions:                                5
       Number of Cartesian basis functions:                                    5
       Number of spherical basis functions:                                    5
       Norm type:                                                              2

       Normalised Cartesian orbitals:

                        Set   Shell   Orbital            Exponent    Coefficient

                          1       1    1s                8.448693      -0.102587
                                                         1.858165      -0.150628
                                                         0.507611      -0.174074
                                                         0.167390      -0.102410

                          1       2    2s                8.448693       0.000000
                                                         1.858165       0.000000
                                                         0.507611       0.000000
                                                         0.167390       0.186513

                          2       1    2px               0.700000       0.912668
                          2       1    2py               0.700000       0.912668
                          2       1    2pz               0.700000       0.912668

     Potential information for                                        GTH-PBE-q1

       Description:                       Goedecker-Teter-Hutter pseudopotential
                                           Goedecker et al., PRB 54, 1703 (1996)
                                          Hartwigsen et al., PRB 58, 3641 (1998)
                                                      Krack, TCA 114, 145 (2005)

       Gaussian exponent of the core charge distribution:              12.500000
       Electronic configuration (s p d ...):                                   1

       Parameters of the local part of the GTH pseudopotential:

                          rloc        C1          C2          C3          C4
                        0.200000   -4.178900    0.724463

  3. Atomic kind: N                                     Number of atoms:      32

     Orbital Basis Set                                              DZVP-GTH-PBE

       Number of orbital shell sets:                                           2
       Number of orbital shells:                                               5
       Number of primitive Cartesian functions:                                5
       Number of Cartesian basis functions:                                   14
       Number of spherical basis functions:                                   13
       Norm type:                                                              2

       Normalised Cartesian orbitals:

                        Set   Shell   Orbital            Exponent    Coefficient

                          1       1    2s                6.164619       0.420336
                                                         1.803721      -0.037610
                                                         0.565851      -0.331484
                                                         0.160330      -0.066869

                          1       2    3s                6.164619       0.000000
                                                         1.803721       0.000000
                                                         0.565851       0.000000
                                                         0.160330       0.180580

                          1       3    3px               6.164619      -1.298978
                                                         1.803721      -0.867695
                                                         0.565851      -0.335435
                                                         0.160330      -0.055666
                          1       3    3py               6.164619      -1.298978
                                                         1.803721      -0.867695
                                                         0.565851      -0.335435
                                                         0.160330      -0.055666
                          1       3    3pz               6.164619      -1.298978
                                                         1.803721      -0.867695
                                                         0.565851      -0.335435
                                                         0.160330      -0.055666

                          1       4    4px               6.164619       0.000000
                                                         1.803721       0.000000
                                                         0.565851       0.000000
                                                         0.160330       0.144613
                          1       4    4py               6.164619       0.000000
                                                         1.803721       0.000000
                                                         0.565851       0.000000
                                                         0.160330       0.144613
                          1       4    4pz               6.164619       0.000000
                                                         1.803721       0.000000
                                                         0.565851       0.000000
                                                         0.160330       0.144613

                          2       1    3dx2              0.700000       0.881721
                          2       1    3dxy              0.700000       1.527185
                          2       1    3dxz              0.700000       1.527185
                          2       1    3dy2              0.700000       0.881721
                          2       1    3dyz              0.700000       1.527185
                          2       1    3dz2              0.700000       0.881721

     Potential information for                                        GTH-PBE-q5

       Description:                       Goedecker-Teter-Hutter pseudopotential
                                           Goedecker et al., PRB 54, 1703 (1996)
                                          Hartwigsen et al., PRB 58, 3641 (1998)
                                                      Krack, TCA 114, 145 (2005)

       Gaussian exponent of the core charge distribution:               6.208322
       Electronic configuration (s p d ...):                               2   3

       Parameters of the local part of the GTH pseudopotential:

                          rloc        C1          C2          C3          C4
                        0.283791  -12.415226    1.868096

       Parameters of the non-local part of the GTH pseudopotential:

                   l      r(l)      h(i,j,l)

                   0    0.255405   13.630263
                   1    0.245495

  4. Atomic kind: O                                     Number of atoms:      64

     Orbital Basis Set                                              DZVP-GTH-PBE

       Number of orbital shell sets:                                           2
       Number of orbital shells:                                               5
       Number of primitive Cartesian functions:                                5
       Number of Cartesian basis functions:                                   14
       Number of spherical basis functions:                                   13
       Norm type:                                                              2

       Normalised Cartesian orbitals:

                        Set   Shell   Orbital            Exponent    Coefficient

                          1       1    2s                8.296892       0.530066
                                                         2.431407      -0.056575
                                                         0.754761      -0.411691
                                                         0.210234      -0.081134

                          1       2    3s                8.296892       0.000000
                                                         2.431407       0.000000
                                                         0.754761       0.000000
                                                         0.210234       0.221278

                          1       3    3px               8.296892      -1.978529
                                                         2.431407      -1.306377
                                                         0.754761      -0.481422
                                                         0.210234      -0.076002
                          1       3    3py               8.296892      -1.978529
                                                         2.431407      -1.306377
                                                         0.754761      -0.481422
                                                         0.210234      -0.076002
                          1       3    3pz               8.296892      -1.978529
                                                         2.431407      -1.306377
                                                         0.754761      -0.481422
                                                         0.210234      -0.076002

                          1       4    4px               8.296892       0.000000
                                                         2.431407       0.000000
                                                         0.754761       0.000000
                                                         0.210234       0.202917
                          1       4    4py               8.296892       0.000000
                                                         2.431407       0.000000
                                                         0.754761       0.000000
                                                         0.210234       0.202917
                          1       4    4pz               8.296892       0.000000
                                                         2.431407       0.000000
                                                         0.754761       0.000000
                                                         0.210234       0.202917

                          2       1    3dx2              0.800000       1.113825
                          2       1    3dxy              0.800000       1.929201
                          2       1    3dxz              0.800000       1.929201
                          2       1    3dy2              0.800000       1.113825
                          2       1    3dyz              0.800000       1.929201
                          2       1    3dz2              0.800000       1.113825

     Potential information for                                        GTH-PBE-q6

       Description:                       Goedecker-Teter-Hutter pseudopotential
                                           Goedecker et al., PRB 54, 1703 (1996)
                                          Hartwigsen et al., PRB 58, 3641 (1998)
                                                      Krack, TCA 114, 145 (2005)

       Gaussian exponent of the core charge distribution:               8.360253
       Electronic configuration (s p d ...):                               2   4

       Parameters of the local part of the GTH pseudopotential:

                          rloc        C1          C2          C3          C4
                        0.244554  -16.667215    2.487311

       Parameters of the non-local part of the GTH pseudopotential:

                   l      r(l)      h(i,j,l)

                   0    0.220956   18.337458
                   1    0.211332


 MOLECULE KIND INFORMATION


 All atoms are their own molecule, skipping detailed information


 TOTAL NUMBERS AND MAXIMUM NUMBERS

  Total number of            - Atomic kinds:                                   4
                             - Atoms:                                       1184
                             - Shell sets:                                  2368
                             - Shells:                                      4832
                             - Primitive Cartesian functions:               5920
                             - Cartesian basis functions:                  11680
                             - Spherical basis functions:                  11040

  Maximum angular momentum of- Orbital basis functions:                        2
                             - Local part of the GTH pseudopotential:          2
                             - Non-local part of the GTH pseudopotential:      0


 MODULE QUICKSTEP:  ATOMIC COORDINATES IN angstrom

  Atom  Kind  Element       X           Y           Z          Z(eff)       Mass

       1     1 C    6    4.834985    3.464963    4.556540      4.00      12.0107
       2     1 C    6    1.812994    6.820036    6.687659      4.00      12.0107
       3     1 C    6    4.549004    8.607464    1.065560      4.00      12.0107
       4     1 C    6    2.098975    1.677537   10.178640      4.00      12.0107
       5     1 C    6    3.594765    2.825283    4.283252      4.00      12.0107
       6     1 C    6    3.053215    7.459717    6.960947      4.00      12.0107
       7     1 C    6    5.789225    7.967783    1.338847      4.00      12.0107
       8     1 C    6    0.858755    2.317217    9.905352      4.00      12.0107
       9     1 C    6    3.437171    2.017676    3.144741      4.00      12.0107
      10     1 C    6    3.210808    8.267324    8.099458      4.00      12.0107
      11     1 C    6    5.946819    7.160176    2.477358      4.00      12.0107
      12     1 C    6    0.701161    3.124824    8.766841      4.00      12.0107
      13     1 C    6    4.517953    1.836990    2.243952      4.00      12.0107
      14     1 C    6    2.130027    8.448010    9.000248      4.00      12.0107
      15     1 C    6    4.866037    6.979490    3.378148      4.00      12.0107
      16     1 C    6    1.781942    3.305510    7.866051      4.00      12.0107
      17     1 C    6    5.739058    2.482655    2.493126      4.00      12.0107
      18     1 C    6    0.908922    7.802345    8.751074      4.00      12.0107
      19     1 C    6    3.644932    7.625155    3.128974      4.00      12.0107
      20     1 C    6    3.003047    2.659845    8.115226      4.00      12.0107
      21     1 C    6    5.945439    3.310979    3.639757      4.00      12.0107
      22     1 C    6    0.702541    6.974021    7.604442      4.00      12.0107
      23     1 C    6    3.438551    8.453479    1.982343      4.00      12.0107
      24     1 C    6    3.209428    1.831521    9.261857      4.00      12.0107
      25     1 C    6    7.246145    3.998891    3.894705      4.00      12.0107
      26     1 C    6   -0.598165    6.286109    7.349495      4.00      12.0107
      27     1 C    6    2.137845    9.141391    1.727395      4.00      12.0107
      28     1 C    6    4.510135    1.143609    9.516805      4.00      12.0107
      29     1 C    6    8.373077    3.808884    2.992824      4.00      12.0107
      30     1 C    6   -1.725098    6.476116    8.251376      4.00      12.0107
      31     1 C    6    1.010912    8.951384    2.629276      4.00      12.0107
      32     1 C    6    5.637067    1.333616    8.614923      4.00      12.0107
      33     1 C    6    9.582062    4.472862    3.178865      4.00      12.0107
      34     1 C    6   -2.934083    5.812138    8.065335      4.00      12.0107
      35     1 C    6   -0.198073    9.615361    2.443235      4.00      12.0107
      36     1 C    6    6.846052    0.669638    8.800965      4.00      12.0107
      37     1 C    6   10.804371    4.306811    2.425685      4.00      12.0107
      38     1 C    6   -4.156391    5.978189    8.818515      4.00      12.0107
      39     1 C    6   -1.420381    9.449310    3.196415      4.00      12.0107
      40     1 C    6    8.068361    0.835689    8.047784      4.00      12.0107
      41     1 C    6   10.978488    3.345361    1.375757      4.00      12.0107
      42     1 C    6   -4.330508    6.939639    9.868443      4.00      12.0107
      43     1 C    6   -1.594498    8.487861    4.246343      4.00      12.0107
      44     1 C    6    8.242478    1.797139    6.997857      4.00      12.0107
      45     1 C    6    0.075001    3.189294    0.710220      4.00      12.0107
      46     1 C    6    6.572979    7.095706   10.533979      4.00      12.0107
      47     1 C    6    9.308989    8.331794    4.911879      4.00      12.0107
      48     1 C    6   -2.661009    1.953206    6.332320      4.00      12.0107
      49     1 C    6    1.206711    4.020227    1.037447      4.00      12.0107
      50     1 C    6    5.441269    6.264773   10.206752      4.00      12.0107
      51     1 C    6    8.177279    9.162727    4.584653      4.00      12.0107
      52     1 C    6   -1.529299    1.122273    6.659547      4.00      12.0107
      53     1 C    6    1.054998    4.971231    2.105334      4.00      12.0107
      54     1 C    6    5.592981    5.313769    9.138866      4.00      12.0107
      55     1 C    6    8.328992   10.113731    3.516766      4.00      12.0107
      56     1 C    6   -1.681012    0.171269    7.727433      4.00      12.0107
      57     1 C    6   -0.170691    5.098830    2.764805      4.00      12.0107
      58     1 C    6    6.818671    5.186170    8.479394      4.00      12.0107
      59     1 C    6    9.554681   10.241330    2.857294      4.00      12.0107
      60     1 C    6   -2.906702    0.043670    8.386905      4.00      12.0107
      61     1 C    6   -2.957380    2.912258   10.501071      4.00      12.0107
      62     1 C    6    9.605360    7.372743    0.743128      4.00      12.0107
      63     1 C    6    6.869350    8.054757    6.365228      4.00      12.0107
      64     1 C    6   -0.221370    2.230242    4.878971      4.00      12.0107
      65     1 C    6    3.518087    4.818770    0.624835      4.00      12.0107
      66     1 C    6    3.129893    5.466230   10.619365      4.00      12.0107
      67     1 C    6    5.865903    9.961270    4.997265      4.00      12.0107
      68     1 C    6    0.782076    0.323730    6.246934      4.00      12.0107
      69     2 H    1    2.755224    2.998998    5.000453      1.00       1.0079
      70     2 H    1    3.892755    7.286001    6.243747      1.00       1.0079
      71     2 H    1    6.628766    8.141498    0.621647      1.00       1.0079
      72     2 H    1    0.019214    2.143501   10.622552      1.00       1.0079
      73     2 H    1    2.454311    1.523972    2.939080      1.00       1.0079
      74     2 H    1    4.193668    8.761028    8.305119      1.00       1.0079
      75     2 H    1    6.929678    6.666472    2.683020      1.00       1.0079
      76     2 H    1   -0.281699    3.618528    8.561180      1.00       1.0079
      77     2 H    1    4.403865    1.191770    1.340280      1.00       1.0079
      78     2 H    1    2.244114    9.093230    9.903919      1.00       1.0079
      79     2 H    1    4.980125    6.334270    4.281820      1.00       1.0079
      80     2 H    1    1.667855    3.950730    6.962380      1.00       1.0079
      81     2 H    1    6.569434    2.327682    1.763834      1.00       1.0079
      82     2 H    1    0.078545    7.957317    9.480366      1.00       1.0079
      83     2 H    1    2.814555    7.470182    3.858266      1.00       1.0079
      84     2 H    1    3.833424    2.814817    7.385934      1.00       1.0079
      85     2 H    1    8.267780    3.085112    2.149869      1.00       1.0079
      86     2 H    1   -1.619801    7.199888    9.094331      1.00       1.0079
      87     2 H    1    1.116209    8.227612    3.472231      1.00       1.0079
      88     2 H    1    5.531770    2.057388    7.771968      1.00       1.0079
      89     2 H    1    9.625155    5.204895    4.029276      1.00       1.0079
      90     2 H    1   -2.977175    5.080105    7.214923      1.00       1.0079
      91     2 H    1   -0.241165   10.347395    1.592823      1.00       1.0079
      92     2 H    1    6.889144   -0.062395    9.651376      1.00       1.0079
      93     2 H    1   10.124536    2.690334    1.071992      1.00       1.0079
      94     2 H    1   -3.476557    7.594666   10.172208      1.00       1.0079
      95     2 H    1   -0.740547    7.832834    4.550108      1.00       1.0079
      96     2 H    1    7.388526    2.452166    6.694091      1.00       1.0079
      97     2 H    1    0.151453    2.425147   -0.098380      1.00       1.0079
      98     2 H    1    6.496527    7.859853   11.342579      1.00       1.0079
      99     2 H    1    9.232537    7.567646    5.720480      1.00       1.0079
     100     2 H    1   -2.584557    2.717353    5.523720      1.00       1.0079
     101     2 H    1    1.914719    5.611218    2.415338      1.00       1.0079
     102     2 H    1    4.733260    4.673782    8.828862      1.00       1.0079
     103     2 H    1    7.469271    0.468718    3.206762      1.00       1.0079
     104     2 H    1   -0.821291    9.816282    8.037437      1.00       1.0079
     105     2 H    1   -0.274775    5.844703    3.591212      1.00       1.0079
     106     2 H    1    6.922755    4.440297    7.652988      1.00       1.0079
     107     2 H    1    9.658765    0.702203    2.030888      1.00       1.0079
     108     2 H    1   -3.010785    9.582797    9.213312      1.00       1.0079
     109     2 H    1   -3.138217    1.868095   10.883210      1.00       1.0079
     110     2 H    1    9.786197    8.416905    0.360989      1.00       1.0079
     111     2 H    1    7.050187    7.010595    5.983089      1.00       1.0079
     112     2 H    1   -0.402207    3.274405    5.261110      1.00       1.0079
     113     2 H    1   -1.925120    2.958946   10.069276      1.00       1.0079
     114     2 H    1    8.573099    7.326054    1.174924      1.00       1.0079
     115     2 H    1    5.837089    8.101446    6.797024      1.00       1.0079
     116     2 H    1    0.810891    2.183554    4.447176      1.00       1.0079
     117     2 H    1   -3.687291    3.113765    9.666603      1.00       1.0079
     118     2 H    1   10.335271    7.171234    1.577596      1.00       1.0079
     119     2 H    1    7.599261    8.256265    7.199696      1.00       1.0079
     120     2 H    1   -0.951281    2.028734    4.044503      1.00       1.0079
     121     2 H    1    3.212458    5.897178    0.502006      1.00       1.0079
     122     2 H    1    3.435522    4.387822   10.742193      1.00       1.0079
     123     2 H    1    6.171532    0.754678    5.120094      1.00       1.0079
     124     2 H    1    0.476448    9.530322    6.124106      1.00       1.0079
     125     2 H    1    4.357000    4.609197   -0.089671      1.00       1.0079
     126     2 H    1    2.290979    5.675803   11.333871      1.00       1.0079
     127     2 H    1    5.026989    9.751697    5.711771      1.00       1.0079
     128     2 H    1    1.620990    0.533303    5.532429      1.00       1.0079
     129     2 H    1    3.909273    4.686373    1.673495      1.00       1.0079
     130     2 H    1    2.738707    5.598626    9.570705      1.00       1.0079
     131     2 H    1    5.474717    9.828874    3.948605      1.00       1.0079
     132     2 H    1    1.173263    0.456127    7.295594      1.00       1.0079
     133     2 H    1    5.944407    4.604996    5.629369      1.00       1.0079
     134     2 H    1    0.703573    5.680004    5.614831      1.00       1.0079
     135     2 H    1   -2.032437    9.747496   11.236930      1.00       1.0079
     136     2 H    1    8.680417    0.537504    0.007269      1.00       1.0079
     137     3 N    7    2.398341    3.906882    0.335921      5.00      14.0067
     138     3 N    7    4.249639    6.378118   10.908278      5.00      14.0067
     139     3 N    7    6.985649    9.049382    5.286179      5.00      14.0067
     140     3 N    7   -0.337669    1.235618    5.958021      5.00      14.0067
     141     4 O    8    4.907398    4.223758    5.718966      6.00      15.9994
     142     4 O    8    1.740582    6.061242    5.525233      6.00      15.9994
     143     4 O    8   -0.995429    9.366258   11.147333      6.00      15.9994
     144     4 O    8    7.643408    0.918742    0.096866      6.00      15.9994
     145     4 O    8    7.386110    4.787955    4.966261      6.00      15.9994
     146     4 O    8   -0.738131    5.497045    6.277938      6.00      15.9994
     147     4 O    8    1.997879    9.930455    0.655838      6.00      15.9994
     148     4 O    8    4.650100    0.354545   10.588361      6.00      15.9994
     149     1 C    6   -0.637035    3.464963   15.800739      4.00      12.0107
     150     1 C    6   -3.659026    6.820036   17.931859      4.00      12.0107
     151     1 C    6   -0.923016    8.607464   12.309760      4.00      12.0107
     152     1 C    6   -3.373045    1.677537   21.422839      4.00      12.0107
     153     1 C    6   -1.877255    2.825283   15.527451      4.00      12.0107
     154     1 C    6   -2.418805    7.459717   18.205147      4.00      12.0107
     155     1 C    6    0.317205    7.967783   12.583047      4.00      12.0107
     156     1 C    6   -4.613265    2.317217   21.149551      4.00      12.0107
     157     1 C    6   -2.034850    2.017676   14.388940      4.00      12.0107
     158     1 C    6   -2.261212    8.267324   19.343657      4.00      12.0107
     159     1 C    6    0.474799    7.160176   13.721557      4.00      12.0107
     160     1 C    6   -4.770860    3.124824   20.011040      4.00      12.0107
     161     1 C    6   -0.954067    1.836990   13.488151      4.00      12.0107
     162     1 C    6   -3.341993    8.448010   20.244448      4.00      12.0107
     163     1 C    6   -0.605983    6.979490   14.622348      4.00      12.0107
     164     1 C    6   -3.690078    3.305510   19.110250      4.00      12.0107
     165     1 C    6    0.267038    2.482655   13.737326      4.00      12.0107
     166     1 C    6   -4.563098    7.802345   19.995273      4.00      12.0107
     167     1 C    6   -1.827088    7.625155   14.373173      4.00      12.0107
     168     1 C    6   -2.468973    2.659845   19.359426      4.00      12.0107
     169     1 C    6    0.473419    3.310979   14.883956      4.00      12.0107
     170     1 C    6   -4.769479    6.974021   18.848642      4.00      12.0107
     171     1 C    6   -2.033469    8.453479   13.226543      4.00      12.0107
     172     1 C    6   -2.262592    1.831521   20.506056      4.00      12.0107
     173     1 C    6    1.774125    3.998891   15.138904      4.00      12.0107
     174     1 C    6   -6.070185    6.286109   18.593695      4.00      12.0107
     175     1 C    6   -3.334175    9.141391   12.971595      4.00      12.0107
     176     1 C    6   -0.961885    1.143609   20.761004      4.00      12.0107
     177     1 C    6    2.901056    3.808884   14.237023      4.00      12.0107
     178     1 C    6   -7.197118    6.476116   19.495576      4.00      12.0107
     179     1 C    6   -4.461108    8.951384   13.873476      4.00      12.0107
     180     1 C    6    0.165046    1.333616   19.859122      4.00      12.0107
     181     1 C    6    4.110042    4.472862   14.423064      4.00      12.0107
     182     1 C    6   -8.406103    5.812138   19.309535      4.00      12.0107
     183     1 C    6   -5.670093    9.615361   13.687435      4.00      12.0107
     184     1 C    6    1.374032    0.669638   20.045164      4.00      12.0107
     185     1 C    6    5.332351    4.306811   13.669885      4.00      12.0107
     186     1 C    6   -9.628412    5.978189   20.062714      4.00      12.0107
     187     1 C    6   -6.892402    9.449310   14.440614      4.00      12.0107
     188     1 C    6    2.596341    0.835689   19.291984      4.00      12.0107
     189     1 C    6    5.506468    3.345361   12.619957      4.00      12.0107
     190     1 C    6   -9.802529    6.939639   21.112642      4.00      12.0107
     191     1 C    6   -7.066519    8.487861   15.490542      4.00      12.0107
     192     1 C    6    2.770458    1.797139   18.242057      4.00      12.0107
     193     1 C    6   -5.397019    3.189294   11.954420      4.00      12.0107
     194     1 C    6    1.100959    7.095706   21.778178      4.00      12.0107
     195     1 C    6    3.836969    8.331794   16.156078      4.00      12.0107
     196     1 C    6   -8.133029    1.953206   17.576520      4.00      12.0107
     197     1 C    6   -4.265310    4.020227   12.281646      4.00      12.0107
     198     1 C    6   -0.030751    6.264773   21.450952      4.00      12.0107
     199     1 C    6    2.705259    9.162727   15.828853      4.00      12.0107
     200     1 C    6   -7.001320    1.122273   17.903746      4.00      12.0107
     201     1 C    6   -4.417022    4.971231   13.349534      4.00      12.0107
     202     1 C    6    0.120961    5.313769   20.383065      4.00      12.0107
     203     1 C    6    2.856972   10.113731   14.760965      4.00      12.0107
     204     1 C    6   -7.153032    0.171269   18.971633      4.00      12.0107
     205     1 C    6   -5.642711    5.098830   14.009005      4.00      12.0107
     206     1 C    6    1.346651    5.186170   19.723593      4.00      12.0107
     207     1 C    6    4.082661   10.241330   14.101493      4.00      12.0107
     208     1 C    6   -8.378722    0.043670   19.631105      4.00      12.0107
     209     1 C    6   -8.429401    2.912258   21.745270      4.00      12.0107
     210     1 C    6    4.133340    7.372743   11.987328      4.00      12.0107
     211     1 C    6    1.397330    8.054757   17.609428      4.00      12.0107
     212     1 C    6   -5.693391    2.230242   16.123170      4.00      12.0107
     213     1 C    6   -1.953934    4.818770   11.869035      4.00      12.0107
     214     1 C    6   -2.342127    5.466230   21.863564      4.00      12.0107
     215     1 C    6    0.393883    9.961270   16.241464      4.00      12.0107
     216     1 C    6   -4.689945    0.323730   17.491134      4.00      12.0107
     217     2 H    1   -2.716796    2.998998   16.244653      1.00       1.0079
     218     2 H    1   -1.579266    7.286001   17.487946      1.00       1.0079
     219     2 H    1    1.156745    8.141498   11.865846      1.00       1.0079
     220     2 H    1   -5.452806    2.143501   21.866752      1.00       1.0079
     221     2 H    1   -3.017710    1.523972   14.183280      1.00       1.0079
     222     2 H    1   -1.278352    8.761028   19.549318      1.00       1.0079
     223     2 H    1    1.457658    6.666472   13.927219      1.00       1.0079
     224     2 H    1   -5.753720    3.618528   19.805380      1.00       1.0079
     225     2 H    1   -1.068155    1.191770   12.584480      1.00       1.0079
     226     2 H    1   -3.227907    9.093230   21.148118      1.00       1.0079
     227     2 H    1   -0.491896    6.334270   15.526019      1.00       1.0079
     228     2 H    1   -3.804165    3.950730   18.206580      1.00       1.0079
     229     2 H    1    1.097414    2.327682   13.008033      1.00       1.0079
     230     2 H    1   -5.393475    7.957317   20.724566      1.00       1.0079
     231     2 H    1   -2.657465    7.470182   15.102466      1.00       1.0079
     232     2 H    1   -1.638596    2.814817   18.630133      1.00       1.0079
     233     2 H    1    2.795760    3.085112   13.394069      1.00       1.0079
     234     2 H    1   -7.091821    7.199888   20.338530      1.00       1.0079
     235     2 H    1   -4.355811    8.227612   14.716430      1.00       1.0079
     236     2 H    1    0.059750    2.057388   19.016168      1.00       1.0079
     237     2 H    1    4.153135    5.204895   15.273476      1.00       1.0079
     238     2 H    1   -8.449195    5.080105   18.459122      1.00       1.0079
     239     2 H    1   -5.713185   10.347395   12.837022      1.00       1.0079
     240     2 H    1    1.417124   -0.062395   20.895576      1.00       1.0079
     241     2 H    1    4.652516    2.690334   12.316192      1.00       1.0079
     242     2 H    1   -8.948578    7.594666   21.416407      1.00       1.0079
     243     2 H    1   -6.212568    7.832834   15.794307      1.00       1.0079
     244     2 H    1    1.916506    2.452166   17.938291      1.00       1.0079
     245     2 H    1   -5.320567    2.425147   11.145820      1.00       1.0079
     246     2 H    1    1.024507    7.859853   22.586778      1.00       1.0079
     247     2 H    1    3.760517    7.567646   16.964679      1.00       1.0079
     248     2 H    1   -8.056577    2.717353   16.767920      1.00       1.0079
     249     2 H    1   -3.557302    5.611218   13.659537      1.00       1.0079
     250     2 H    1   -0.738760    4.673782   20.073062      1.00       1.0079
     251     2 H    1    1.997251    0.468718   14.450962      1.00       1.0079
     252     2 H    1   -6.293312    9.816282   19.281636      1.00       1.0079
     253     2 H    1   -5.746795    5.844703   14.835412      1.00       1.0079
     254     2 H    1    1.450734    4.440297   18.897187      1.00       1.0079
     255     2 H    1    4.186744    0.702203   13.275087      1.00       1.0079
     256     2 H    1   -8.482805    9.582797   20.457512      1.00       1.0079
     257     2 H    1   -8.610237    1.868095   22.127410      1.00       1.0079
     258     2 H    1    4.314177    8.416905   11.605188      1.00       1.0079
     259     2 H    1    1.578167    7.010595   17.227288      1.00       1.0079
     260     2 H    1   -5.874227    3.274405   16.505310      1.00       1.0079
     261     2 H    1   -7.397140    2.958946   21.313475      1.00       1.0079
     262     2 H    1    3.101079    7.326054   12.419124      1.00       1.0079
     263     2 H    1    0.365069    8.101446   18.041224      1.00       1.0079
     264     2 H    1   -4.661129    2.183554   15.691375      1.00       1.0079
     265     2 H    1   -9.159311    3.113765   20.910802      1.00       1.0079
     266     2 H    1    4.863250    7.171234   12.821796      1.00       1.0079
     267     2 H    1    2.127240    8.256265   18.443896      1.00       1.0079
     268     2 H    1   -6.423301    2.028734   15.288702      1.00       1.0079
     269     2 H    1   -2.259562    5.897178   11.746205      1.00       1.0079
     270     2 H    1   -2.036498    4.387822   21.986392      1.00       1.0079
     271     2 H    1    0.699512    0.754678   16.364293      1.00       1.0079
     272     2 H    1   -4.995572    9.530322   17.368305      1.00       1.0079
     273     2 H    1   -1.115020    4.609197   11.154528      1.00       1.0079
     274     2 H    1   -3.181041    5.675803   22.578071      1.00       1.0079
     275     2 H    1   -0.445031    9.751697   16.955971      1.00       1.0079
     276     2 H    1   -3.851030    0.533303   16.776628      1.00       1.0079
     277     2 H    1   -1.562747    4.686373   12.917695      1.00       1.0079
     278     2 H    1   -2.733314    5.598626   20.814904      1.00       1.0079
     279     2 H    1    0.002696    9.828874   15.192804      1.00       1.0079
     280     2 H    1   -4.298757    0.456127   18.539794      1.00       1.0079
     281     2 H    1    0.472387    4.604996   16.873568      1.00       1.0079
     282     2 H    1   -4.768448    5.680004   16.859031      1.00       1.0079
     283     2 H    1   -7.504458    9.747496   22.481130      1.00       1.0079
     284     2 H    1    3.208397    0.537504   11.251468      1.00       1.0079
     285     3 N    7   -3.073679    3.906882   11.580121      5.00      14.0067
     286     3 N    7   -1.222381    6.378118   22.152477      5.00      14.0067
     287     3 N    7    1.513629    9.049382   16.530378      5.00      14.0067
     288     3 N    7   -5.809689    1.235618   17.202221      5.00      14.0067
     289     4 O    8   -0.564622    4.223758   16.963166      6.00      15.9994
     290     4 O    8   -3.731438    6.061242   16.769432      6.00      15.9994
     291     4 O    8   -6.467449    9.366258   22.391532      6.00      15.9994
     292     4 O    8    2.171388    0.918742   11.341066      6.00      15.9994
     293     4 O    8    1.914090    4.787955   16.210461      6.00      15.9994
     294     4 O    8   -6.210151    5.497045   17.522137      6.00      15.9994
     295     4 O    8   -3.474141    9.930455   11.900037      6.00      15.9994
     296     4 O    8   -0.821920    0.354545   21.832561      6.00      15.9994
     297     1 C    6    4.834985   13.749963    4.556540      4.00      12.0107
     298     1 C    6    1.812994   17.105036    6.687659      4.00      12.0107
     299     1 C    6    4.549004   18.892464    1.065560      4.00      12.0107
     300     1 C    6    2.098975   11.962537   10.178640      4.00      12.0107
     301     1 C    6    3.594765   13.110283    4.283252      4.00      12.0107
     302     1 C    6    3.053215   17.744717    6.960947      4.00      12.0107
     303     1 C    6    5.789225   18.252783    1.338847      4.00      12.0107
     304     1 C    6    0.858755   12.602217    9.905352      4.00      12.0107
     305     1 C    6    3.437171   12.302675    3.144741      4.00      12.0107
     306     1 C    6    3.210808   18.552324    8.099458      4.00      12.0107
     307     1 C    6    5.946819   17.445175    2.477358      4.00      12.0107
     308     1 C    6    0.701161   13.409824    8.766841      4.00      12.0107
     309     1 C    6    4.517953   12.121989    2.243952      4.00      12.0107
     310     1 C    6    2.130027   18.733010    9.000248      4.00      12.0107
     311     1 C    6    4.866037   17.264489    3.378148      4.00      12.0107
     312     1 C    6    1.781942   13.590510    7.866051      4.00      12.0107
     313     1 C    6    5.739058   12.767655    2.493126      4.00      12.0107
     314     1 C    6    0.908922   18.087345    8.751074      4.00      12.0107
     315     1 C    6    3.644932   17.910155    3.128974      4.00      12.0107
     316     1 C    6    3.003047   12.944845    8.115226      4.00      12.0107
     317     1 C    6    5.945439   13.595979    3.639757      4.00      12.0107
     318     1 C    6    0.702541   17.259021    7.604442      4.00      12.0107
     319     1 C    6    3.438551   18.738479    1.982343      4.00      12.0107
     320     1 C    6    3.209428   12.116521    9.261857      4.00      12.0107
     321     1 C    6    7.246145   14.283891    3.894705      4.00      12.0107
     322     1 C    6   -0.598165   16.571109    7.349495      4.00      12.0107
     323     1 C    6    2.137845   19.426391    1.727395      4.00      12.0107
     324     1 C    6    4.510135   11.428609    9.516805      4.00      12.0107
     325     1 C    6    8.373077   14.093884    2.992824      4.00      12.0107
     326     1 C    6   -1.725098   16.761116    8.251376      4.00      12.0107
     327     1 C    6    1.010912   19.236384    2.629276      4.00      12.0107
     328     1 C    6    5.637067   11.618616    8.614923      4.00      12.0107
     329     1 C    6    9.582062   14.757861    3.178865      4.00      12.0107
     330     1 C    6   -2.934083   16.097138    8.065335      4.00      12.0107
     331     1 C    6   -0.198073   19.900360    2.443235      4.00      12.0107
     332     1 C    6    6.846052   10.954638    8.800965      4.00      12.0107
     333     1 C    6   10.804371   14.591811    2.425685      4.00      12.0107
     334     1 C    6   -4.156391   16.263189    8.818515      4.00      12.0107
     335     1 C    6   -1.420381   19.734310    3.196415      4.00      12.0107
     336     1 C    6    8.068361   11.120689    8.047784      4.00      12.0107
     337     1 C    6   10.978488   13.630361    1.375757      4.00      12.0107
     338     1 C    6   -4.330508   17.224639    9.868443      4.00      12.0107
     339     1 C    6   -1.594498   18.772861    4.246343      4.00      12.0107
     340     1 C    6    8.242478   12.082139    6.997857      4.00      12.0107
     341     1 C    6    0.075001   13.474293    0.710220      4.00      12.0107
     342     1 C    6    6.572979   17.380706   10.533979      4.00      12.0107
     343     1 C    6    9.308989   18.616793    4.911879      4.00      12.0107
     344     1 C    6   -2.661009   12.238206    6.332320      4.00      12.0107
     345     1 C    6    1.206711   14.305227    1.037447      4.00      12.0107
     346     1 C    6    5.441269   16.549773   10.206752      4.00      12.0107
     347     1 C    6    8.177279   19.447727    4.584653      4.00      12.0107
     348     1 C    6   -1.529299   11.407273    6.659547      4.00      12.0107
     349     1 C    6    1.054998   15.256231    2.105334      4.00      12.0107
     350     1 C    6    5.592981   15.598769    9.138866      4.00      12.0107
     351     1 C    6    8.328992   20.398731    3.516766      4.00      12.0107
     352     1 C    6   -1.681012   10.456269    7.727433      4.00      12.0107
     353     1 C    6   -0.170691   15.383830    2.764805      4.00      12.0107
     354     1 C    6    6.818671   15.471170    8.479394      4.00      12.0107
     355     1 C    6    9.554681   20.526330    2.857294      4.00      12.0107
     356     1 C    6   -2.906702   10.328670    8.386905      4.00      12.0107
     357     1 C    6   -2.957380   13.197258   10.501071      4.00      12.0107
     358     1 C    6    9.605360   17.657743    0.743128      4.00      12.0107
     359     1 C    6    6.869350   18.339757    6.365228      4.00      12.0107
     360     1 C    6   -0.221370   12.515242    4.878971      4.00      12.0107
     361     1 C    6    3.518087   15.103770    0.624835      4.00      12.0107
     362     1 C    6    3.129893   15.751229   10.619365      4.00      12.0107
     363     1 C    6    5.865903   20.246270    4.997265      4.00      12.0107
     364     1 C    6    0.782076   10.608729    6.246934      4.00      12.0107
     365     2 H    1    2.755224   13.283997    5.000453      1.00       1.0079
     366     2 H    1    3.892755   17.571001    6.243747      1.00       1.0079
     367     2 H    1    6.628766   18.426497    0.621647      1.00       1.0079
     368     2 H    1    0.019214   12.428501   10.622552      1.00       1.0079
     369     2 H    1    2.454311   11.808972    2.939080      1.00       1.0079
     370     2 H    1    4.193668   19.046028    8.305119      1.00       1.0079
     371     2 H    1    6.929678   16.951472    2.683020      1.00       1.0079
     372     2 H    1   -0.281699   13.903528    8.561180      1.00       1.0079
     373     2 H    1    4.403865   11.476769    1.340280      1.00       1.0079
     374     2 H    1    2.244114   19.378230    9.903919      1.00       1.0079
     375     2 H    1    4.980125   16.619269    4.281820      1.00       1.0079
     376     2 H    1    1.667855   14.235730    6.962380      1.00       1.0079
     377     2 H    1    6.569434   12.612682    1.763834      1.00       1.0079
     378     2 H    1    0.078545   18.242317    9.480366      1.00       1.0079
     379     2 H    1    2.814555   17.755182    3.858266      1.00       1.0079
     380     2 H    1    3.833424   13.099817    7.385934      1.00       1.0079
     381     2 H    1    8.267780   13.370112    2.149869      1.00       1.0079
     382     2 H    1   -1.619801   17.484888    9.094331      1.00       1.0079
     383     2 H    1    1.116209   18.512612    3.472231      1.00       1.0079
     384     2 H    1    5.531770   12.342388    7.771968      1.00       1.0079
     385     2 H    1    9.625155   15.489895    4.029276      1.00       1.0079
     386     2 H    1   -2.977175   15.365105    7.214923      1.00       1.0079
     387     2 H    1   -0.241165   20.632395    1.592823      1.00       1.0079
     388     2 H    1    6.889144   10.222605    9.651376      1.00       1.0079
     389     2 H    1   10.124536   12.975334    1.071992      1.00       1.0079
     390     2 H    1   -3.476557   17.879666   10.172208      1.00       1.0079
     391     2 H    1   -0.740547   18.117834    4.550108      1.00       1.0079
     392     2 H    1    7.388526   12.737166    6.694091      1.00       1.0079
     393     2 H    1    0.151453   12.710147   -0.098380      1.00       1.0079
     394     2 H    1    6.496527   18.144853   11.342579      1.00       1.0079
     395     2 H    1    9.232537   17.852646    5.720480      1.00       1.0079
     396     2 H    1   -2.584557   13.002353    5.523720      1.00       1.0079
     397     2 H    1    1.914719   15.896217    2.415338      1.00       1.0079
     398     2 H    1    4.733260   14.958782    8.828862      1.00       1.0079
     399     2 H    1    7.469271   10.753717    3.206762      1.00       1.0079
     400     2 H    1   -0.821291   20.101282    8.037437      1.00       1.0079
     401     2 H    1   -0.274775   16.129703    3.591212      1.00       1.0079
     402     2 H    1    6.922755   14.725297    7.652988      1.00       1.0079
     403     2 H    1    9.658765   10.987203    2.030888      1.00       1.0079
     404     2 H    1   -3.010785   19.867797    9.213312      1.00       1.0079
     405     2 H    1   -3.138217   12.153095   10.883210      1.00       1.0079
     406     2 H    1    9.786197   18.701905    0.360989      1.00       1.0079
     407     2 H    1    7.050187   17.295595    5.983089      1.00       1.0079
     408     2 H    1   -0.402207   13.559405    5.261110      1.00       1.0079
     409     2 H    1   -1.925120   13.243945   10.069276      1.00       1.0079
     410     2 H    1    8.573099   17.611054    1.174924      1.00       1.0079
     411     2 H    1    5.837089   18.386445    6.797024      1.00       1.0079
     412     2 H    1    0.810891   12.468554    4.447176      1.00       1.0079
     413     2 H    1   -3.687291   13.398765    9.666603      1.00       1.0079
     414     2 H    1   10.335271   17.456234    1.577596      1.00       1.0079
     415     2 H    1    7.599261   18.541265    7.199696      1.00       1.0079
     416     2 H    1   -0.951281   12.313734    4.044503      1.00       1.0079
     417     2 H    1    3.212458   16.182178    0.502006      1.00       1.0079
     418     2 H    1    3.435522   14.672822   10.742193      1.00       1.0079
     419     2 H    1    6.171532   11.039678    5.120094      1.00       1.0079
     420     2 H    1    0.476448   19.815322    6.124106      1.00       1.0079
     421     2 H    1    4.357000   14.894197   -0.089671      1.00       1.0079
     422     2 H    1    2.290979   15.960803   11.333871      1.00       1.0079
     423     2 H    1    5.026989   20.036697    5.711771      1.00       1.0079
     424     2 H    1    1.620990   10.818303    5.532429      1.00       1.0079
     425     2 H    1    3.909273   14.971373    1.673495      1.00       1.0079
     426     2 H    1    2.738707   15.883626    9.570705      1.00       1.0079
     427     2 H    1    5.474717   20.113874    3.948605      1.00       1.0079
     428     2 H    1    1.173263   10.741127    7.295594      1.00       1.0079
     429     2 H    1    5.944407   14.889995    5.629369      1.00       1.0079
     430     2 H    1    0.703573   15.965004    5.614831      1.00       1.0079
     431     2 H    1   -2.032437   20.032495   11.236930      1.00       1.0079
     432     2 H    1    8.680417   10.822504    0.007269      1.00       1.0079
     433     3 N    7    2.398341   14.191882    0.335921      5.00      14.0067
     434     3 N    7    4.249639   16.663117   10.908278      5.00      14.0067
     435     3 N    7    6.985649   19.334382    5.286179      5.00      14.0067
     436     3 N    7   -0.337669   11.520617    5.958021      5.00      14.0067
     437     4 O    8    4.907398   14.508758    5.718966      6.00      15.9994
     438     4 O    8    1.740582   16.346242    5.525233      6.00      15.9994
     439     4 O    8   -0.995429   19.651258   11.147333      6.00      15.9994
     440     4 O    8    7.643408   11.203742    0.096866      6.00      15.9994
     441     4 O    8    7.386110   15.072955    4.966261      6.00      15.9994
     442     4 O    8   -0.738131   15.782045    6.277938      6.00      15.9994
     443     4 O    8    1.997879   20.215455    0.655838      6.00      15.9994
     444     4 O    8    4.650100   10.639545   10.588361      6.00      15.9994
     445     1 C    6   -0.637035   13.749963   15.800739      4.00      12.0107
     446     1 C    6   -3.659026   17.105036   17.931859      4.00      12.0107
     447     1 C    6   -0.923016   18.892464   12.309760      4.00      12.0107
     448     1 C    6   -3.373045   11.962537   21.422839      4.00      12.0107
     449     1 C    6   -1.877255   13.110283   15.527451      4.00      12.0107
     450     1 C    6   -2.418805   17.744717   18.205147      4.00      12.0107
     451     1 C    6    0.317205   18.252783   12.583047      4.00      12.0107
     452     1 C    6   -4.613265   12.602217   21.149551      4.00      12.0107
     453     1 C    6   -2.034850   12.302675   14.388940      4.00      12.0107
     454     1 C    6   -2.261212   18.552324   19.343657      4.00      12.0107
     455     1 C    6    0.474799   17.445175   13.721557      4.00      12.0107
     456     1 C    6   -4.770860   13.409824   20.011040      4.00      12.0107
     457     1 C    6   -0.954067   12.121989   13.488151      4.00      12.0107
     458     1 C    6   -3.341993   18.733010   20.244448      4.00      12.0107
     459     1 C    6   -0.605983   17.264489   14.622348      4.00      12.0107
     460     1 C    6   -3.690078   13.590510   19.110250      4.00      12.0107
     461     1 C    6    0.267038   12.767655   13.737326      4.00      12.0107
     462     1 C    6   -4.563098   18.087345   19.995273      4.00      12.0107
     463     1 C    6   -1.827088   17.910155   14.373173      4.00      12.0107
     464     1 C    6   -2.468973   12.944845   19.359426      4.00      12.0107
     465     1 C    6    0.473419   13.595979   14.883956      4.00      12.0107
     466     1 C    6   -4.769479   17.259021   18.848642      4.00      12.0107
     467     1 C    6   -2.033469   18.738479   13.226543      4.00      12.0107
     468     1 C    6   -2.262592   12.116521   20.506056      4.00      12.0107
     469     1 C    6    1.774125   14.283891   15.138904      4.00      12.0107
     470     1 C    6   -6.070185   16.571109   18.593695      4.00      12.0107
     471     1 C    6   -3.334175   19.426391   12.971595      4.00      12.0107
     472     1 C    6   -0.961885   11.428609   20.761004      4.00      12.0107
     473     1 C    6    2.901056   14.093884   14.237023      4.00      12.0107
     474     1 C    6   -7.197118   16.761116   19.495576      4.00      12.0107
     475     1 C    6   -4.461108   19.236384   13.873476      4.00      12.0107
     476     1 C    6    0.165046   11.618616   19.859122      4.00      12.0107
     477     1 C    6    4.110042   14.757861   14.423064      4.00      12.0107
     478     1 C    6   -8.406103   16.097138   19.309535      4.00      12.0107
     479     1 C    6   -5.670093   19.900360   13.687435      4.00      12.0107
     480     1 C    6    1.374032   10.954638   20.045164      4.00      12.0107
     481     1 C    6    5.332351   14.591811   13.669885      4.00      12.0107
     482     1 C    6   -9.628412   16.263189   20.062714      4.00      12.0107
     483     1 C    6   -6.892402   19.734310   14.440614      4.00      12.0107
     484     1 C    6    2.596341   11.120689   19.291984      4.00      12.0107
     485     1 C    6    5.506468   13.630361   12.619957      4.00      12.0107
     486     1 C    6   -9.802529   17.224639   21.112642      4.00      12.0107
     487     1 C    6   -7.066519   18.772861   15.490542      4.00      12.0107
     488     1 C    6    2.770458   12.082139   18.242057      4.00      12.0107
     489     1 C    6   -5.397019   13.474293   11.954420      4.00      12.0107
     490     1 C    6    1.100959   17.380706   21.778178      4.00      12.0107
     491     1 C    6    3.836969   18.616793   16.156078      4.00      12.0107
     492     1 C    6   -8.133029   12.238206   17.576520      4.00      12.0107
     493     1 C    6   -4.265310   14.305227   12.281646      4.00      12.0107
     494     1 C    6   -0.030751   16.549773   21.450952      4.00      12.0107
     495     1 C    6    2.705259   19.447727   15.828853      4.00      12.0107
     496     1 C    6   -7.001320   11.407273   17.903746      4.00      12.0107
     497     1 C    6   -4.417022   15.256231   13.349534      4.00      12.0107
     498     1 C    6    0.120961   15.598769   20.383065      4.00      12.0107
     499     1 C    6    2.856972   20.398731   14.760965      4.00      12.0107
     500     1 C    6   -7.153032   10.456269   18.971633      4.00      12.0107
     501     1 C    6   -5.642711   15.383830   14.009005      4.00      12.0107
     502     1 C    6    1.346651   15.471170   19.723593      4.00      12.0107
     503     1 C    6    4.082661   20.526330   14.101493      4.00      12.0107
     504     1 C    6   -8.378722   10.328670   19.631105      4.00      12.0107
     505     1 C    6   -8.429401   13.197258   21.745270      4.00      12.0107
     506     1 C    6    4.133340   17.657743   11.987328      4.00      12.0107
     507     1 C    6    1.397330   18.339757   17.609428      4.00      12.0107
     508     1 C    6   -5.693391   12.515242   16.123170      4.00      12.0107
     509     1 C    6   -1.953934   15.103770   11.869035      4.00      12.0107
     510     1 C    6   -2.342127   15.751229   21.863564      4.00      12.0107
     511     1 C    6    0.393883   20.246270   16.241464      4.00      12.0107
     512     1 C    6   -4.689945   10.608729   17.491134      4.00      12.0107
     513     2 H    1   -2.716796   13.283997   16.244653      1.00       1.0079
     514     2 H    1   -1.579266   17.571001   17.487946      1.00       1.0079
     515     2 H    1    1.156745   18.426497   11.865846      1.00       1.0079
     516     2 H    1   -5.452806   12.428501   21.866752      1.00       1.0079
     517     2 H    1   -3.017710   11.808972   14.183280      1.00       1.0079
     518     2 H    1   -1.278352   19.046028   19.549318      1.00       1.0079
     519     2 H    1    1.457658   16.951472   13.927219      1.00       1.0079
     520     2 H    1   -5.753720   13.903528   19.805380      1.00       1.0079
     521     2 H    1   -1.068155   11.476769   12.584480      1.00       1.0079
     522     2 H    1   -3.227907   19.378230   21.148118      1.00       1.0079
     523     2 H    1   -0.491896   16.619269   15.526019      1.00       1.0079
     524     2 H    1   -3.804165   14.235730   18.206580      1.00       1.0079
     525     2 H    1    1.097414   12.612682   13.008033      1.00       1.0079
     526     2 H    1   -5.393475   18.242317   20.724566      1.00       1.0079
     527     2 H    1   -2.657465   17.755182   15.102466      1.00       1.0079
     528     2 H    1   -1.638596   13.099817   18.630133      1.00       1.0079
     529     2 H    1    2.795760   13.370112   13.394069      1.00       1.0079
     530     2 H    1   -7.091821   17.484888   20.338530      1.00       1.0079
     531     2 H    1   -4.355811   18.512612   14.716430      1.00       1.0079
     532     2 H    1    0.059750   12.342388   19.016168      1.00       1.0079
     533     2 H    1    4.153135   15.489895   15.273476      1.00       1.0079
     534     2 H    1   -8.449195   15.365105   18.459122      1.00       1.0079
     535     2 H    1   -5.713185   20.632395   12.837022      1.00       1.0079
     536     2 H    1    1.417124   10.222605   20.895576      1.00       1.0079
     537     2 H    1    4.652516   12.975334   12.316192      1.00       1.0079
     538     2 H    1   -8.948578   17.879666   21.416407      1.00       1.0079
     539     2 H    1   -6.212568   18.117834   15.794307      1.00       1.0079
     540     2 H    1    1.916506   12.737166   17.938291      1.00       1.0079
     541     2 H    1   -5.320567   12.710147   11.145820      1.00       1.0079
     542     2 H    1    1.024507   18.144853   22.586778      1.00       1.0079
     543     2 H    1    3.760517   17.852646   16.964679      1.00       1.0079
     544     2 H    1   -8.056577   13.002353   16.767920      1.00       1.0079
     545     2 H    1   -3.557302   15.896217   13.659537      1.00       1.0079
     546     2 H    1   -0.738760   14.958782   20.073062      1.00       1.0079
     547     2 H    1    1.997251   10.753717   14.450962      1.00       1.0079
     548     2 H    1   -6.293312   20.101282   19.281636      1.00       1.0079
     549     2 H    1   -5.746795   16.129703   14.835412      1.00       1.0079
     550     2 H    1    1.450734   14.725297   18.897187      1.00       1.0079
     551     2 H    1    4.186744   10.987203   13.275087      1.00       1.0079
     552     2 H    1   -8.482805   19.867797   20.457512      1.00       1.0079
     553     2 H    1   -8.610237   12.153095   22.127410      1.00       1.0079
     554     2 H    1    4.314177   18.701905   11.605188      1.00       1.0079
     555     2 H    1    1.578167   17.295595   17.227288      1.00       1.0079
     556     2 H    1   -5.874227   13.559405   16.505310      1.00       1.0079
     557     2 H    1   -7.397140   13.243945   21.313475      1.00       1.0079
     558     2 H    1    3.101079   17.611054   12.419124      1.00       1.0079
     559     2 H    1    0.365069   18.386445   18.041224      1.00       1.0079
     560     2 H    1   -4.661129   12.468554   15.691375      1.00       1.0079
     561     2 H    1   -9.159311   13.398765   20.910802      1.00       1.0079
     562     2 H    1    4.863250   17.456234   12.821796      1.00       1.0079
     563     2 H    1    2.127240   18.541265   18.443896      1.00       1.0079
     564     2 H    1   -6.423301   12.313734   15.288702      1.00       1.0079
     565     2 H    1   -2.259562   16.182178   11.746205      1.00       1.0079
     566     2 H    1   -2.036498   14.672822   21.986392      1.00       1.0079
     567     2 H    1    0.699512   11.039678   16.364293      1.00       1.0079
     568     2 H    1   -4.995572   19.815322   17.368305      1.00       1.0079
     569     2 H    1   -1.115020   14.894197   11.154528      1.00       1.0079
     570     2 H    1   -3.181041   15.960803   22.578071      1.00       1.0079
     571     2 H    1   -0.445031   20.036697   16.955971      1.00       1.0079
     572     2 H    1   -3.851030   10.818303   16.776628      1.00       1.0079
     573     2 H    1   -1.562747   14.971373   12.917695      1.00       1.0079
     574     2 H    1   -2.733314   15.883626   20.814904      1.00       1.0079
     575     2 H    1    0.002696   20.113874   15.192804      1.00       1.0079
     576     2 H    1   -4.298757   10.741127   18.539794      1.00       1.0079
     577     2 H    1    0.472387   14.889995   16.873568      1.00       1.0079
     578     2 H    1   -4.768448   15.965004   16.859031      1.00       1.0079
     579     2 H    1   -7.504458   20.032495   22.481130      1.00       1.0079
     580     2 H    1    3.208397   10.822504   11.251468      1.00       1.0079
     581     3 N    7   -3.073679   14.191882   11.580121      5.00      14.0067
     582     3 N    7   -1.222381   16.663117   22.152477      5.00      14.0067
     583     3 N    7    1.513629   19.334382   16.530378      5.00      14.0067
     584     3 N    7   -5.809689   11.520617   17.202221      5.00      14.0067
     585     4 O    8   -0.564622   14.508758   16.963166      6.00      15.9994
     586     4 O    8   -3.731438   16.346242   16.769432      6.00      15.9994
     587     4 O    8   -6.467449   19.651258   22.391532      6.00      15.9994
     588     4 O    8    2.171388   11.203742   11.341066      6.00      15.9994
     589     4 O    8    1.914090   15.072955   16.210461      6.00      15.9994
     590     4 O    8   -6.210151   15.782045   17.522137      6.00      15.9994
     591     4 O    8   -3.474141   20.215455   11.900037      6.00      15.9994
     592     4 O    8   -0.821920   10.639545   21.832561      6.00      15.9994
     593     1 C    6   16.954985    3.464963    4.556540      4.00      12.0107
     594     1 C    6   13.932994    6.820036    6.687659      4.00      12.0107
     595     1 C    6   16.669004    8.607464    1.065560      4.00      12.0107
     596     1 C    6   14.218975    1.677537   10.178640      4.00      12.0107
     597     1 C    6   15.714765    2.825283    4.283252      4.00      12.0107
     598     1 C    6   15.173215    7.459717    6.960947      4.00      12.0107
[...]
   1055       C      1       4.000          4.022                        -0.022
   1056       C      1       4.000          4.022                        -0.022
   1057       C      1       4.000          3.983                         0.017
   1058       C      1       4.000          3.983                         0.017
   1059       C      1       4.000          3.983                         0.017
   1060       C      1       4.000          3.983                         0.017
   1061       C      1       4.000          3.702                         0.298
   1062       C      1       4.000          3.702                         0.298
   1063       C      1       4.000          3.702                         0.298
   1064       C      1       4.000          3.702                         0.298
   1065       C      1       4.000          4.052                        -0.052
   1066       C      1       4.000          4.052                        -0.052
   1067       C      1       4.000          4.052                        -0.052
   1068       C      1       4.000          4.052                        -0.052
   1069       C      1       4.000          3.989                         0.011
   1070       C      1       4.000          3.989                         0.011
   1071       C      1       4.000          3.989                         0.011
   1072       C      1       4.000          3.989                         0.011
   1073       C      1       4.000          3.982                         0.018
   1074       C      1       4.000          3.982                         0.018
   1075       C      1       4.000          3.982                         0.018
   1076       C      1       4.000          3.982                         0.018
   1077       C      1       4.000          4.026                        -0.026
   1078       C      1       4.000          4.026                        -0.026
   1079       C      1       4.000          4.026                        -0.026
   1080       C      1       4.000          4.026                        -0.026
   1081       C      1       4.000          4.044                        -0.044
   1082       C      1       4.000          4.044                        -0.044
   1083       C      1       4.000          4.044                        -0.044
   1084       C      1       4.000          4.044                        -0.044
   1085       C      1       4.000          3.850                         0.150
   1086       C      1       4.000          3.850                         0.150
   1087       C      1       4.000          3.850                         0.150
   1088       C      1       4.000          3.850                         0.150
   1089       C      1       4.000          4.052                        -0.052
   1090       C      1       4.000          4.052                        -0.052
   1091       C      1       4.000          4.052                        -0.052
   1092       C      1       4.000          4.052                        -0.052
   1093       C      1       4.000          4.021                        -0.021
   1094       C      1       4.000          4.021                        -0.021
   1095       C      1       4.000          4.021                        -0.021
   1096       C      1       4.000          4.021                        -0.021
   1097       C      1       4.000          4.002                        -0.002
   1098       C      1       4.000          4.002                        -0.002
   1099       C      1       4.000          4.002                        -0.002
   1100       C      1       4.000          4.002                        -0.002
   1101       C      1       4.000          4.000                        -0.000
   1102       C      1       4.000          4.000                        -0.000
   1103       C      1       4.000          4.000                        -0.000
   1104       C      1       4.000          4.000                        -0.000
   1105       H      2       1.000          0.950                         0.050
   1106       H      2       1.000          0.950                         0.050
   1107       H      2       1.000          0.950                         0.050
   1108       H      2       1.000          0.950                         0.050
   1109       H      2       1.000          0.965                         0.035
   1110       H      2       1.000          0.965                         0.035
   1111       H      2       1.000          0.965                         0.035
   1112       H      2       1.000          0.965                         0.035
   1113       H      2       1.000          0.956                         0.044
   1114       H      2       1.000          0.956                         0.044
   1115       H      2       1.000          0.956                         0.044
   1116       H      2       1.000          0.956                         0.044
   1117       H      2       1.000          0.949                         0.051
   1118       H      2       1.000          0.949                         0.051
   1119       H      2       1.000          0.949                         0.051
   1120       H      2       1.000          0.949                         0.051
   1121       H      2       1.000          0.963                         0.037
   1122       H      2       1.000          0.963                         0.037
   1123       H      2       1.000          0.963                         0.037
   1124       H      2       1.000          0.963                         0.037
   1125       H      2       1.000          0.947                         0.053
   1126       H      2       1.000          0.947                         0.053
   1127       H      2       1.000          0.947                         0.053
   1128       H      2       1.000          0.947                         0.053
   1129       H      2       1.000          0.956                         0.044
   1130       H      2       1.000          0.956                         0.044
   1131       H      2       1.000          0.956                         0.044
   1132       H      2       1.000          0.956                         0.044
   1133       H      2       1.000          0.966                         0.034
   1134       H      2       1.000          0.966                         0.034
   1135       H      2       1.000          0.966                         0.034
   1136       H      2       1.000          0.966                         0.034
   1137       H      2       1.000          0.971                         0.029
   1138       H      2       1.000          0.971                         0.029
   1139       H      2       1.000          0.971                         0.029
   1140       H      2       1.000          0.971                         0.029
   1141       H      2       1.000          0.952                         0.048
   1142       H      2       1.000          0.952                         0.048
   1143       H      2       1.000          0.952                         0.048
   1144       H      2       1.000          0.952                         0.048
   1145       H      2       1.000          0.947                         0.053
   1146       H      2       1.000          0.947                         0.053
   1147       H      2       1.000          0.947                         0.053
   1148       H      2       1.000          0.947                         0.053
   1149       H      2       1.000          0.950                         0.050
   1150       H      2       1.000          0.950                         0.050
   1151       H      2       1.000          0.950                         0.050
   1152       H      2       1.000          0.950                         0.050
   1153       H      2       1.000          0.981                         0.019
   1154       H      2       1.000          0.981                         0.019
   1155       H      2       1.000          0.981                         0.019
   1156       H      2       1.000          0.981                         0.019
   1157       H      2       1.000          0.976                         0.024
   1158       H      2       1.000          0.976                         0.024
   1159       H      2       1.000          0.976                         0.024
   1160       H      2       1.000          0.976                         0.024
   1161       H      2       1.000          0.954                         0.046
   1162       H      2       1.000          0.954                         0.046
   1163       H      2       1.000          0.954                         0.046
   1164       H      2       1.000          0.954                         0.046
   1165       H      2       1.000          0.982                         0.018
   1166       H      2       1.000          0.982                         0.018
   1167       H      2       1.000          0.982                         0.018
   1168       H      2       1.000          0.982                         0.018
   1169       H      2       1.000          0.757                         0.243
   1170       H      2       1.000          0.757                         0.243
   1171       H      2       1.000          0.757                         0.243
   1172       H      2       1.000          0.757                         0.243
   1173       N      3       5.000          5.258                        -0.258
   1174       N      3       5.000          5.258                        -0.258
   1175       N      3       5.000          5.258                        -0.258
   1176       N      3       5.000          5.258                        -0.258
   1177       O      4       6.000          6.521                        -0.521
   1178       O      4       6.000          6.521                        -0.521
   1179       O      4       6.000          6.521                        -0.521
   1180       O      4       6.000          6.521                        -0.521
   1181       O      4       6.000          6.558                        -0.558
   1182       O      4       6.000          6.558                        -0.558
   1183       O      4       6.000          6.558                        -0.558
   1184       O      4       6.000          6.558                        -0.558

  Total Charge                                                           -0.005
 !-----------------------------------------------------------------------------!

 ENERGY| Total FORCE_EVAL ( QS ) energy (a.u.):            -4759.841845311447287


 -------------------------------------------------------------------------------
 -                                                                             -
 -                                DBCSR STATISTICS                             -
 -                                                                             -
 -------------------------------------------------------------------------------
 COUNTER                                      CPU                  ACC      ACC%
 flops   5 x    5 x   64                905932800                    0       0.0
 flops   5 x   13 x   64               3806300160                    0       0.0
 flops  13 x    5 x   64               4355020800                    0       0.0
 flops  13 x   13 x   64              17898835968                    0       0.0
 flops   5 x    5 x  224              22195353600                    0       0.0
 flops   5 x   13 x  224              93254353920                    0       0.0
 flops  13 x    5 x  224             106698009600                    0       0.0
 flops  13 x   13 x  224             438521481216                    0       0.0
 flops total                         687635288064                    0       0.0
 matmuls inhomo. stacks                         0                    0       0.0
 matmuls total                           16731648                    0       0.0
 number of processed stacks                 36864                    0       0.0
 average stack size                         453.9                  0.0
 marketing flops                    7160787763200
 -------------------------------------------------------------------------------
 # max total images/proc                        1
 # MPI data exchanged                       16128
 # MPI data filtered                            0
 MPI data size (elements):
  total                                4540354560
  min                                       88320
  max                                      309120
  average                                  281520
 MPI breakdown and total data size (bytes):
             size <=      128                   0                        0
       128 < size <=     8192                   0                        0
      8192 < size <=    32768                   0                        0
     32768 < size <=   131072                   0                        0
    131072 < size <=  4194304               16128              36322836480
   4194304 < size <= 16777216                   0                        0
  16777216 < size                               0                        0
 -------------------------------------------------------------------------------

 -------------------------------------------------------------------------------
 ----                             MULTIGRID INFO                            ----
 -------------------------------------------------------------------------------
 count for grid        1:         660768          cutoff [a.u.]          100.00
 count for grid        2:         523376          cutoff [a.u.]           33.33
 count for grid        3:         343264          cutoff [a.u.]           11.11
 count for grid        4:          54592          cutoff [a.u.]            3.70
 total gridlevel count  :        1582000

 -------------------------------------------------------------------------------
 -                                                                             -
 -                         MESSAGE PASSING PERFORMANCE                         -
 -                                                                             -
 -------------------------------------------------------------------------------

 ROUTINE             CALLS  TOT TIME [s]  AVE VOLUME [Bytes]  PERFORMANCE [MB/s]
 MP_Group                5         0.000
 MP_Bcast              195         0.066            5073049.            14880.51
 MP_Allreduce          403         5.302               2073.                0.16
 MP_Gather               4         0.002               1792.                4.33
 MP_Sync                 4         0.023
 MP_Alltoall           714        22.520            3562013.              112.93
 MP_ISendRecv         4662         0.024              39060.             7513.98
 MP_Wait              8104        10.820
 MP_ISend             2774         0.024             405296.            46300.95
 MP_IRecv             2774         0.009             382293.           123671.82
 MP_Memory             432         0.018
 -------------------------------------------------------------------------------


 -------------------------------------------------------------------------------
 -                                                                             -
 -                           R E F E R E N C E S                               -
 -                                                                             -
 -------------------------------------------------------------------------------
 
 CP2K version 2.7 (Development Version), the CP2K developers group (2015).
 CP2K is freely available from http://www.cp2k.org/ .

 Borstnik, U; VandeVondele, J; Weber, V; Hutter, J. 
 PARALLEL COMPUTING, 40 (5-6), 47-58 (2014). 
 Sparse matrix multiplication: The distributed block-compressed sparse
 row library.
 http://dx.doi.org/10.1016/j.parco.2014.03.012


 Hutter, J; Iannuzzi, M; Schiffmann, F; VandeVondele, J. 
 WILEY INTERDISCIPLINARY REVIEWS-COMPUTATIONAL MOLECULAR SCIENCE, 4 (1), 15-25 (2014). 
 CP2K: atomistic simulations of condensed matter systems.
 http://dx.doi.org/10.1002/wcms.1159


 Grimme, S. 
 JOURNAL OF COMPUTATIONAL CHEMISTRY, 27 (15), 1787-1799 (2006). 
 Semiempirical GGA-type density functional constructed with a long-range
 dispersion correction.
 http://dx.doi.org/10.1002/jcc.20495


 Krack, M. 
 THEORETICAL CHEMISTRY ACCOUNTS, 114 (1-3), 145-152 (2005). 
 Pseudopotentials for H to Kr optimized for gradient-corrected
 exchange-correlation functionals.
 http://dx.doi.org/10.1007/s00214-005-0655-y


 VandeVondele, J; Krack, M; Mohamed, F; Parrinello, M; Chassaing, T;
 Hutter, J. COMPUTER PHYSICS COMMUNICATIONS, 167 (2), 103-128 (2005). 
 QUICKSTEP: Fast and accurate density functional calculations using a
 mixed Gaussian and plane waves approach.
 http://dx.doi.org/10.1016/j.cpc.2004.12.014


 Frigo, M; Johnson, SG. 
 PROCEEDINGS OF THE IEEE, 93 (2), 216-231 (2005). 
 The design and implementation of FFTW3.
 http://dx.doi.org/10.1109/JPROC.2004.840301


 Hartwigsen, C; Goedecker, S; Hutter, J. 
 PHYSICAL REVIEW B, 58 (7), 3641-3662 (1998). 
 Relativistic separable dual-space Gaussian pseudopotentials from H to Rn.
 http://dx.doi.org/10.1103/PhysRevB.58.3641


 Lippert, G; Hutter, J; Parrinello, M. 
 MOLECULAR PHYSICS, 92 (3), 477-487 (1997). 
 A hybrid Gaussian and plane wave density functional scheme.
 http://dx.doi.org/10.1080/002689797170220


 Perdew, JP; Burke, K; Ernzerhof, M. 
 PHYSICAL REVIEW LETTERS, 77 (18), 3865-3868 (1996). 
 Generalized gradient approximation made simple.
 http://dx.doi.org/10.1103/PhysRevLett.77.3865


 Goedecker, S; Teter, M; Hutter, J. 
 PHYSICAL REVIEW B, 54 (3), 1703-1710 (1996). 
 Separable dual-space Gaussian pseudopotentials.
 http://dx.doi.org/10.1103/PhysRevB.54.1703


 -------------------------------------------------------------------------------
 -                                                                             -
 -                                T I M I N G                                  -
 -                                                                             -
 -------------------------------------------------------------------------------
 SUBROUTINE                       CALLS  ASD         SELF TIME        TOTAL TIME
                                MAXIMUM       AVERAGE  MAXIMUM  AVERAGE  MAXIMUM
 CP2K                                 1  1.0    2.142    7.613  897.259  897.272
 qs_energies_scf                      1  2.0    0.002    0.018  887.614  887.616
 scf_env_do_scf                       1  3.0    0.000    0.002  874.378  874.386
 scf_env_do_scf_inner_loop           18  4.0    0.002    0.033  874.378  874.386
 eigensolver                         18  5.0    0.000    0.001  820.577  820.646
 cp_fm_syevd                         18  6.0    0.000    0.000  674.000  674.327
 cp_fm_syevd_base                    18  7.0  674.000  674.326  674.000  674.326
 cp_fm_cholesky_restore              54  6.0  145.242  146.134  145.242  146.134
 qs_ks_update_qs_env                 18  5.0    0.000    0.000   29.081   29.098
 rebuild_ks_matrix                   18  6.0    0.000    0.001   28.931   28.947
 qs_ks_build_kohn_sham_matrix        18  7.0    0.091    5.032   28.931   28.947
 -------------------------------------------------------------------------------

  **** **** ******  **  PROGRAM ENDED AT                 2017-01-24 14:37:51.422
 ***** ** ***  *** **   PROGRAM RAN ON                                      nxn7
 **    ****   ******    PROGRAM RAN BY                                    btx156
 ***** **    ** ** **   PROGRAM PROCESS ID                                 30698
  **** **  *******  **  PROGRAM STOPPED IN /data/home/btx156/cp2k/2HC/single_poi
                                           nt_structure1/super
