 DBCSR| Multiplication driver                                                SMM
 DBCSR| Multrec recursion limit                                              512
 DBCSR| Multiplication stack size                                           1000
 DBCSR| Multiplication size stacks                                             3
 DBCSR| Use subcommunicators                                                   T
 DBCSR| Use MPI combined types                                                 F
 DBCSR| Use MPI memory allocation                                              T
 DBCSR| Use Communication thread                                               T
 DBCSR| Communication thread load                                             87


  **** **** ******  **  PROGRAM STARTED AT               2016-10-25 16:01:44.754
 ***** ** ***  *** **   PROGRAM STARTED ON                                 nxn36
 **    ****   ******    PROGRAM STARTED BY                                      
 ***** **    ** ** **   PROGRAM PROCESS ID                                 32125
  **** **  *******  **  PROGRAM STARTED IN            /tmp/3824076.1.chemistry.q

 CP2K| version string:                                        CP2K version 2.5.1
 CP2K| source code revision number:                                    svn:13632
 CP2K| is freely available from                             http://www.cp2k.org/
 CP2K| Program compiled at                          Tue Jul  1 12:07:48 BST 2014
 CP2K| Program compiled on                                                  dn50
 CP2K| Program compiled for                                   Linux-x86-64-intel
 CP2K| Input file name                                                   cp2k.in
 
 GLOBAL| Force Environment number                                              1
 GLOBAL| Basis set file name                    /data/home/btx156/cp2k/BASIS_SET
 GLOBAL| Geminal file name                                         BASIS_GEMINAL
 GLOBAL| Potential file name                    /data/home/btx156/cp2k/POTENTIAL
 GLOBAL| MM Potential file name                                     MM_POTENTIAL
 GLOBAL| Coordinate file name                                      __STD_INPUT__
 GLOBAL| Method name                                                        CP2K
 GLOBAL| Project name                                                    NAPHTHA
 GLOBAL| Preferred FFT library                                             FFTW3
 GLOBAL| Preferred diagonalization lib.                                       SL
 GLOBAL| Run type                                                        GEO_OPT
 GLOBAL| All-to-all communication in single precision                          F
 GLOBAL| FFTs using library dependent lengths                                  F
 GLOBAL| Global print level                                               MEDIUM
 GLOBAL| Total number of message passing processes                             1
 GLOBAL| Number of threads for this process                                    1
 GLOBAL| This output is from process                                           0

 MEMORY| system memory details [Kb]
 MEMORY|                        rank 0           min           max       average
 MEMORY| MemTotal            197948140     197948140     197948140     197948140
 MEMORY| MemFree             190004676     190004676     190004676     190004676
 MEMORY| Buffers                183544        183544        183544        183544
 MEMORY| Cached                1314484       1314484       1314484       1314484
 MEMORY| Slab                   202636        202636        202636        202636
 MEMORY| SReclaimable           124236        124236        124236        124236
 MEMORY| MemLikelyFree       191626940     191626940     191626940     191626940


 *** Fundamental physical constants (SI units) ***

 *** Literature: B. J. Mohr and B. N. Taylor,
 ***             CODATA recommended values of the fundamental physical
 ***             constants: 2006, Web Version 5.1
 ***             http://physics.nist.gov/constants

 Speed of light in vacuum [m/s]                             2.99792458000000E+08
 Magnetic constant or permeability of vacuum [N/A**2]       1.25663706143592E-06
 Electric constant or permittivity of vacuum [F/m]          8.85418781762039E-12
 Planck constant (h) [J*s]                                  6.62606896000000E-34
 Planck constant (h-bar) [J*s]                              1.05457162825177E-34
 Elementary charge [C]                                      1.60217648700000E-19
 Electron mass [kg]                                         9.10938215000000E-31
 Electron g factor [ ]                                     -2.00231930436220E+00
 Proton mass [kg]                                           1.67262163700000E-27
 Fine-structure constant                                    7.29735253760000E-03
 Rydberg constant [1/m]                                     1.09737315685270E+07
 Avogadro constant [1/mol]                                  6.02214179000000E+23
 Boltzmann constant [J/K]                                   1.38065040000000E-23
 Atomic mass unit [kg]                                      1.66053878200000E-27
 Bohr radius [m]                                            5.29177208590000E-11

 *** Conversion factors ***

 [u] -> [a.u.]                                              1.82288848426455E+03
 [Angstrom] -> [Bohr] = [a.u.]                              1.88972613288564E+00
 [a.u.] = [Bohr] -> [Angstrom]                              5.29177208590000E-01
 [a.u.] -> [s]                                              2.41888432650478E-17
 [a.u.] -> [fs]                                             2.41888432650478E-02
 [a.u.] -> [J]                                              4.35974393937059E-18
 [a.u.] -> [N]                                              8.23872205491840E-08
 [a.u.] -> [K]                                              3.15774647902944E+05
 [a.u.] -> [kJ/mol]                                         2.62549961709828E+03
 [a.u.] -> [kcal/mol]                                       6.27509468713739E+02
 [a.u.] -> [Pa]                                             2.94210107994716E+13
 [a.u.] -> [bar]                                            2.94210107994716E+08
 [a.u.] -> [atm]                                            2.90362800883016E+08
 [a.u.] -> [eV]                                             2.72113838565563E+01
 [a.u.] -> [Hz]                                             6.57968392072181E+15
 [a.u.] -> [1/cm] (wave numbers)                            2.19474631370540E+05
 [a.u./Bohr**2] -> [1/cm]                                   5.14048714338585E+03
 

 CELL| Volume [angstrom^3]:                                             2739.504
 CELL| Vector a [angstrom]:      15.650     0.000     0.000    |a| =      15.650
 CELL| Vector b [angstrom]:       0.000    11.870     0.000    |b| =      11.870
 CELL| Vector c [angstrom]:      -6.703     0.000    14.748    |c| =      16.199
 CELL| Angle (b,c), alpha [degree]:                                       90.000
 CELL| Angle (a,c), beta  [degree]:                                      114.441
 CELL| Angle (a,b), gamma [degree]:                                       90.000
 CELL| Numerically orthorhombic:                                              NO

 CELL_REF| Volume [angstrom^3]:                                         2739.504
 CELL_REF| Vector a [angstrom    15.650     0.000     0.000    |a| =      15.650
 CELL_REF| Vector b [angstrom     0.000    11.870     0.000    |b| =      11.870
 CELL_REF| Vector c [angstrom    -6.703     0.000    14.748    |c| =      16.199
 CELL_REF| Angle (b,c), alpha [degree]:                                   90.000
 CELL_REF| Angle (a,c), beta  [degree]:                                  114.441
 CELL_REF| Angle (a,b), gamma [degree]:                                   90.000
 CELL_REF| Numerically orthorhombic:                                          NO

 CELL_TOP| Volume [angstrom^3]:                                         2739.504
 CELL_TOP| Vector a [angstrom    15.650     0.000     0.000    |a| =      15.650
 CELL_TOP| Vector b [angstrom     0.000    11.870     0.000    |b| =      11.870
 CELL_TOP| Vector c [angstrom    -6.703     0.000    14.748    |c| =      16.199
 CELL_TOP| Angle (b,c), alpha [degree]:                                   90.000
 CELL_TOP| Angle (a,c), beta  [degree]:                                  114.441
 CELL_TOP| Angle (a,b), gamma [degree]:                                   90.000
 CELL_TOP| Numerically orthorhombic:                                          NO
 
 GENERATE|  Preliminary Number of Bonds generated:                             0
 GENERATE|  Achieved consistency in connectivity generation.

 *******************************************************************************
 *******************************************************************************
 **                                                                           **
 **     #####                         ##              ##                      **
 **    ##   ##            ##          ##              ##                      **
 **   ##     ##                       ##            ######                    **
 **   ##     ##  ##   ##  ##   #####  ##  ##   ####   ##    #####    #####    **
 **   ##     ##  ##   ##  ##  ##      ## ##   ##      ##   ##   ##  ##   ##   **
 **   ##  ## ##  ##   ##  ##  ##      ####     ###    ##   ######   ######    **
 **    ##  ###   ##   ##  ##  ##      ## ##      ##   ##   ##       ##        **
 **     #######   #####   ##   #####  ##  ##  ####    ##    #####   ##        **
 **           ##                                                    ##        **
 **                                                                           **
 **                                                ... make the atoms dance   **
 **                                                                           **
 **            Copyright (C) by CP2K Developers Group (2000 - 2014)           **
 **                                                                           **
 *******************************************************************************

 DFT| Spin restricted Kohn-Sham (RKS) calculation                            RKS
 DFT| Multiplicity                                                             1
 DFT| Number of spin states                                                    1
 DFT| Charge                                                                   0
 DFT| Self-interaction correction (SIC)                                       NO
 DFT| Cutoffs: density                                              1.000000E-10
 DFT|          gradient                                             1.000000E-10
 DFT|          tau                                                  1.000000E-10
 DFT|          cutoff_smoothing_range                               0.000000E+00
 DFT| XC density smoothing                                                  NONE
 DFT| XC derivatives                                                          PW
 FUNCTIONAL| ROUTINE=NEW
 FUNCTIONAL| PBE:
 FUNCTIONAL| J.P.Perdew, K.Burke, M.Ernzerhof, Phys. Rev. Letter, vol. 77, n 18,
 FUNCTIONAL|  pp. 3865-3868, (1996){spin unpolarized}
 vdW POTENTIAL|                                                   Pair Potential
 vdW POTENTIAL|                   Potential Form: S. Grimme, JCC 27: 1787 (2006)
 vdW POTENTIAL|                   Cutoff Radius [Bohr]:                    20.00
 vdW POTENTIAL|                   Scaling Factor:                         0.7500
 vdW POTENTIAL|                   Exp Prefactor for Damping:                20.0
 vdW PARAMETER|  Atom=C    C6[J*nm^6*mol^-1]=  1.7500         r(vdW)[A]=  1.4520
 vdW PARAMETER|  Atom=H    C6[J*nm^6*mol^-1]=  0.1400         r(vdW)[A]=  1.0010

 QS| Method:                                                                 GPW
 QS| Density plane wave grid type                        NON-SPHERICAL FULLSPACE
 QS| Number of grid levels:                                                    4
 QS| Density cutoff [a.u.]:                                                100.0
 QS| Multi grid cutoff [a.u.]: 1) grid level                               100.0
 QS|                           2) grid level                                33.3
 QS|                           3) grid level                                11.1
 QS|                           4) grid level                                 3.7
 QS| Grid level progression factor:                                          3.0
 QS| Relative density cutoff [a.u.]:                                        15.0
 QS| Consistent realspace mapping and integration 
 QS| Interaction thresholds: eps_pgf_orb:                                3.2E-04
 QS|                         eps_filter_matrix:                          0.0E+00
 QS|                         eps_core_charge:                            1.0E-09
 QS|                         eps_rho_gspace:                             1.0E-07
 QS|                         eps_rho_rspace:                             1.0E-07
 QS|                         eps_gvg_rspace:                             3.2E-04
 QS|                         eps_ppl:                                    1.0E-02
 QS|                         eps_ppnl:                                   3.2E-06


 ATOMIC KIND INFORMATION

  1. Atomic kind: C                                     Number of atoms:     160

     Orbital Basis Set                                              DZVP-GTH-PBE

       Number of orbital shell sets:                                           2
       Number of orbital shells:                                               5
       Number of primitive Cartesian functions:                                5
       Number of Cartesian basis functions:                                   14
       Number of spherical basis functions:                                   13
       Norm type:                                                              2

       Normalised Cartesian orbitals:

                        Set   Shell   Orbital            Exponent    Coefficient

                          1       1    2s                4.365761       0.317724
                                                         1.274963      -0.017959
                                                         0.405288      -0.256998
                                                         0.117272      -0.054292

                          1       2    3s                4.365761       0.000000
                                                         1.274963       0.000000
                                                         0.405288       0.000000
                                                         0.117272       0.142825

                          1       3    3px               4.365761      -0.777347
                                                         1.274963      -0.529750
                                                         0.405288      -0.219987
                                                         0.117272      -0.039472
                          1       3    3py               4.365761      -0.777347
                                                         1.274963      -0.529750
                                                         0.405288      -0.219987
                                                         0.117272      -0.039472
                          1       3    3pz               4.365761      -0.777347
                                                         1.274963      -0.529750
                                                         0.405288      -0.219987
                                                         0.117272      -0.039472

                          1       4    4px               4.365761       0.000000
                                                         1.274963       0.000000
                                                         0.405288       0.000000
                                                         0.117272       0.097821
                          1       4    4py               4.365761       0.000000
                                                         1.274963       0.000000
                                                         0.405288       0.000000
                                                         0.117272       0.097821
                          1       4    4pz               4.365761       0.000000
                                                         1.274963       0.000000
                                                         0.405288       0.000000
                                                         0.117272       0.097821

                          2       1    3dx2              0.600000       0.673247
                          2       1    3dxy              0.600000       1.166097
                          2       1    3dxz              0.600000       1.166097
                          2       1    3dy2              0.600000       0.673247
                          2       1    3dyz              0.600000       1.166097
                          2       1    3dz2              0.600000       0.673247

     Potential information for                                        GTH-PBE-q4

       Description:                       Goedecker-Teter-Hutter pseudopotential
                                           Goedecker et al., PRB 54, 1703 (1996)
                                          Hartwigsen et al., PRB 58, 3641 (1998)
                                                      Krack, TCA 114, 145 (2005)

       Gaussian exponent of the core charge distribution:               4.364419
       Electronic configuration (s p d ...):                               2   2

       Parameters of the local part of the GTH pseudopotential:

                          rloc        C1          C2          C3          C4
                        0.338471   -8.803674    1.339211

       Parameters of the non-local part of the GTH pseudopotential:

                   l      r(l)      h(i,j,l)

                   0    0.302576    9.622487
                   1    0.291507

  2. Atomic kind: H                                     Number of atoms:     128

     Orbital Basis Set                                              DZVP-GTH-PBE

       Number of orbital shell sets:                                           2
       Number of orbital shells:                                               3
       Number of primitive Cartesian functions:                                5
       Number of Cartesian basis functions:                                    5
       Number of spherical basis functions:                                    5
       Norm type:                                                              2

       Normalised Cartesian orbitals:

                        Set   Shell   Orbital            Exponent    Coefficient

                          1       1    1s                8.448693      -0.102587
                                                         1.858165      -0.150628
                                                         0.507611      -0.174074
                                                         0.167390      -0.102410

                          1       2    2s                8.448693       0.000000
                                                         1.858165       0.000000
                                                         0.507611       0.000000
                                                         0.167390       0.186513

                          2       1    2px               0.700000       0.912668
                          2       1    2py               0.700000       0.912668
                          2       1    2pz               0.700000       0.912668

     Potential information for                                        GTH-PBE-q1

       Description:                       Goedecker-Teter-Hutter pseudopotential
                                           Goedecker et al., PRB 54, 1703 (1996)
                                          Hartwigsen et al., PRB 58, 3641 (1998)
                                                      Krack, TCA 114, 145 (2005)

       Gaussian exponent of the core charge distribution:              12.500000
       Electronic configuration (s p d ...):                                   1

       Parameters of the local part of the GTH pseudopotential:

                          rloc        C1          C2          C3          C4
                        0.200000   -4.178900    0.724463


 MOLECULE KIND INFORMATION


 All atoms are their own molecule, skipping detailed information


 TOTAL NUMBERS AND MAXIMUM NUMBERS

  Total number of            - Atomic kinds:                                   2
                             - Atoms:                                        288
                             - Shell sets:                                   576
                             - Shells:                                      1184
                             - Primitive Cartesian functions:               1440
                             - Cartesian basis functions:                   2880
                             - Spherical basis functions:                   2720

  Maximum angular momentum of- Orbital basis functions:                        2
                             - Local part of the GTH pseudopotential:          2
                             - Non-local part of the GTH pseudopotential:      0


 MODULE QUICKSTEP:  ATOMIC COORDINATES IN angstrom

  Atom  Kind  Element       X           Y           Z          Z(eff)       Mass

       1     1 C    6    7.198114    0.111973   12.922777      4.00      12.0107
       2     1 C    6    1.748889   11.757827    1.824960      4.00      12.0107
       3     1 C    6    0.073240    3.079423    5.511895      4.00      12.0107
       4     1 C    6   12.225062    2.855477    1.861974      4.00      12.0107
       5     1 C    6   10.549412    0.111972    5.548908      4.00      12.0107
       6     1 C    6   -1.602410   11.757827    9.198829      4.00      12.0107
       7     1 C    6   -3.278059    3.079423   12.885763      4.00      12.0107
       8     1 C    6    8.873763    2.855477    9.235842      4.00      12.0107
       9     1 C    6    7.198114    6.046873   12.922777      4.00      12.0107
      10     1 C    6    1.748889    5.822927    1.824960      4.00      12.0107
      11     1 C    6    0.073240    9.014322    5.511895      4.00      12.0107
      12     1 C    6   12.225062    8.790377    1.861974      4.00      12.0107
      13     1 C    6   10.549412    6.046872    5.548908      4.00      12.0107
      14     1 C    6   -1.602410    5.822927    9.198829      4.00      12.0107
      15     1 C    6   -3.278059    9.014322   12.885763      4.00      12.0107
      16     1 C    6    8.873763    8.790377    9.235842      4.00      12.0107
      17     1 C    6   -0.630863    0.112861   12.923678      4.00      12.0107
      18     1 C    6    9.577865   11.756939    1.824059      4.00      12.0107
      19     1 C    6    7.902216    3.080310    5.510993      4.00      12.0107
      20     1 C    6    4.396085    2.854590    1.862875      4.00      12.0107
      21     1 C    6    2.720436    0.112860    5.549809      4.00      12.0107
      22     1 C    6    6.226567   11.756939    9.197928      4.00      12.0107
      23     1 C    6    4.550918    3.080310   12.884862      4.00      12.0107
      24     1 C    6    1.044786    2.854590    9.236744      4.00      12.0107
      25     1 C    6   -0.630863    6.047760   12.923678      4.00      12.0107
      26     1 C    6    9.577865    5.822039    1.824059      4.00      12.0107
      27     1 C    6    7.902216    9.015210    5.510993      4.00      12.0107
      28     1 C    6    4.396085    8.789489    1.862875      4.00      12.0107
      29     1 C    6    2.720435    6.047760    5.549809      4.00      12.0107
      30     1 C    6    6.226567    5.822040    9.197928      4.00      12.0107
      31     1 C    6    4.550918    9.015210   12.884862      4.00      12.0107
      32     1 C    6    1.044786    8.789489    9.236744      4.00      12.0107
      33     1 C    6    7.570460    0.972748   13.933272      4.00      12.0107
      34     1 C    6    1.376543   10.897052    0.814465      4.00      12.0107
      35     1 C    6   -0.299106    3.940197    4.501399      4.00      12.0107
      36     1 C    6   12.597408    1.994702    2.872470      4.00      12.0107
      37     1 C    6   10.921758    0.972748    6.559404      4.00      12.0107
      38     1 C    6   -1.974756   10.897052    8.188333      4.00      12.0107
      39     1 C    6   -3.650405    3.940197   11.875268      4.00      12.0107
      40     1 C    6    9.246109    1.994702   10.246338      4.00      12.0107
      41     1 C    6    7.570460    6.907647   13.933272      4.00      12.0107
      42     1 C    6    1.376543    4.962153    0.814465      4.00      12.0107
      43     1 C    6   -0.299106    9.875098    4.501399      4.00      12.0107
      44     1 C    6   12.597408    7.929602    2.872469      4.00      12.0107
      45     1 C    6   10.921758    6.907648    6.559403      4.00      12.0107
      46     1 C    6   -1.974756    4.962152    8.188334      4.00      12.0107
      47     1 C    6   -3.650405    9.875098   11.875268      4.00      12.0107
      48     1 C    6    9.246109    7.929602   10.246338      4.00      12.0107
      49     1 C    6   -0.255598    0.973467   13.934255      4.00      12.0107
      50     1 C    6    9.202601   10.896333    0.813482      4.00      12.0107
      51     1 C    6    7.526951    3.940917    4.500416      4.00      12.0107
      52     1 C    6    4.771350    1.993983    2.873453      4.00      12.0107
      53     1 C    6    3.095701    0.973467    6.560387      4.00      12.0107
      54     1 C    6    5.851302   10.896332    8.187350      4.00      12.0107
      55     1 C    6    4.175653    3.940917   11.874284      4.00      12.0107
      56     1 C    6    1.420051    1.993983   10.247321      4.00      12.0107
      57     1 C    6   -0.255598    6.908367   13.934255      4.00      12.0107
      58     1 C    6    9.202601    4.961433    0.813482      4.00      12.0107
      59     1 C    6    7.526951    9.875817    4.500416      4.00      12.0107
      60     1 C    6    4.771350    7.928883    2.873453      4.00      12.0107
      61     1 C    6    3.095701    6.908367    6.560387      4.00      12.0107
      62     1 C    6    5.851302    4.961433    8.187350      4.00      12.0107
      63     1 C    6    4.175653    9.875817   11.874284      4.00      12.0107
      64     1 C    6    1.420051    7.928883   10.247321      4.00      12.0107
      65     1 C    6   15.317927    0.631446    0.080091      4.00      12.0107
      66     1 C    6   -6.370924   11.238353   14.667646      4.00      12.0107
      67     1 C    6   -1.343976    3.598896    3.606844      4.00      12.0107
      68     1 C    6   13.642278    2.336004    3.767025      4.00      12.0107
      69     1 C    6   11.966628    0.631446    7.453960      4.00      12.0107
      70     1 C    6   -3.019626   11.238353    7.293778      4.00      12.0107
      71     1 C    6   -4.695275    3.598896   10.980711      4.00      12.0107
      72     1 C    6   10.290979    2.336004   11.140894      4.00      12.0107
      73     1 C    6   15.317927    6.566346    0.080091      4.00      12.0107
      74     1 C    6   -6.370924    5.303453   14.667646      4.00      12.0107
      75     1 C    6   -1.343977    9.533796    3.606844      4.00      12.0107
      76     1 C    6   13.642278    8.270904    3.767025      4.00      12.0107
      77     1 C    6   11.966628    6.566346    7.453960      4.00      12.0107
      78     1 C    6   -3.019626    5.303454    7.293778      4.00      12.0107
      79     1 C    6   -4.695275    9.533796   10.980711      4.00      12.0107
      80     1 C    6   10.290979    8.270904   11.140894      4.00      12.0107
      81     1 C    6    7.493414    0.631770    0.080308      4.00      12.0107
      82     1 C    6    1.453589   11.238030   14.667428      4.00      12.0107
      83     1 C    6    6.480537    3.599219    3.606626      4.00      12.0107
      84     1 C    6    5.817765    2.335681    3.767242      4.00      12.0107
      85     1 C    6    4.142115    0.631769    7.454177      4.00      12.0107
      86     1 C    6    4.804887   11.238030    7.293560      4.00      12.0107
      87     1 C    6    3.129238    3.599219   10.980494      4.00      12.0107
      88     1 C    6    2.466466    2.335680   11.141111      4.00      12.0107
      89     1 C    6    7.493414    6.566669    0.080308      4.00      12.0107
      90     1 C    6    1.453589    5.303130   14.667428      4.00      12.0107
      91     1 C    6    6.480537    9.534119    3.606626      4.00      12.0107
      92     1 C    6    5.817765    8.270580    3.767243      4.00      12.0107
      93     1 C    6    4.142115    6.566669    7.454177      4.00      12.0107
      94     1 C    6    4.804887    5.303131    7.293561      4.00      12.0107
      95     1 C    6    3.129238    9.534119   10.980494      4.00      12.0107
      96     1 C    6    2.466466    8.270580   11.141111      4.00      12.0107
      97     1 C    6    0.075428    1.497175    1.126220      4.00      12.0107
      98     1 C    6    8.871575   10.372625   13.621517      4.00      12.0107
      99     1 C    6   13.898523    4.464625    2.560715      4.00      12.0107
     100     1 C    6   -1.600222    1.470275    4.813154      4.00      12.0107
     101     1 C    6   -3.275871    1.497175    8.500088      4.00      12.0107
     102     1 C    6   12.222874   10.372624    6.247649      4.00      12.0107
     103     1 C    6   10.547224    4.464625    9.934583      4.00      12.0107
     104     1 C    6   -4.951520    1.470275   12.187022      4.00      12.0107
     105     1 C    6    0.075428    7.432075    1.126219      4.00      12.0107
     106     1 C    6    8.871575    4.437725   13.621517      4.00      12.0107
     107     1 C    6   13.898523   10.399525    2.560715      4.00      12.0107
     108     1 C    6   -1.600222    7.405175    4.813154      4.00      12.0107
     109     1 C    6   -3.275871    7.432075    8.500088      4.00      12.0107
     110     1 C    6   12.222874    4.437725    6.247649      4.00      12.0107
     111     1 C    6   10.547224   10.399525    9.934583      4.00      12.0107
     112     1 C    6   -4.951520    7.405175   12.187022      4.00      12.0107
     113     1 C    6    7.904315    1.496740    1.126437      4.00      12.0107
     114     1 C    6    1.042688   10.373060   13.621300      4.00      12.0107
     115     1 C    6    6.069636    4.464190    2.560498      4.00      12.0107
     116     1 C    6    6.228665    1.470709    4.813371      4.00      12.0107
     117     1 C    6    4.553016    1.496740    8.500305      4.00      12.0107
     118     1 C    6    4.393986   10.373059    6.247432      4.00      12.0107
     119     1 C    6    2.718337    4.464190    9.934366      4.00      12.0107
     120     1 C    6    2.877367    1.470709   12.187239      4.00      12.0107
     121     1 C    6    7.904315    7.431640    1.126436      4.00      12.0107
     122     1 C    6    1.042688    4.438160   13.621300      4.00      12.0107
     123     1 C    6    6.069636   10.399090    2.560498      4.00      12.0107
     124     1 C    6    6.228666    7.405610    4.813371      4.00      12.0107
     125     1 C    6    4.553016    7.431640    8.500305      4.00      12.0107
     126     1 C    6    4.393986    4.438159    6.247432      4.00      12.0107
     127     1 C    6    2.718337   10.399090    9.934366      4.00      12.0107
     128     1 C    6    2.877367    7.405610   12.187240      4.00      12.0107
     129     1 C    6    1.093260    1.132064    1.982599      4.00      12.0107
     130     1 C    6    7.853743   10.737736   12.765138      4.00      12.0107
     131     1 C    6   12.880691    4.099513    1.704336      4.00      12.0107
     132     1 C    6   -0.582389    1.835386    5.669533      4.00      12.0107
     133     1 C    6   -2.258039    1.132063    9.356467      4.00      12.0107
     134     1 C    6   11.205041   10.737736    5.391270      4.00      12.0107
     135     1 C    6    9.529392    4.099513    9.078204      4.00      12.0107
     136     1 C    6   -3.933688    1.835386   13.043402      4.00      12.0107
     137     1 C    6    1.093260    7.066964    1.982599      4.00      12.0107
     138     1 C    6    7.853743    4.802836   12.765138      4.00      12.0107
     139     1 C    6   12.880691   10.034413    1.704335      4.00      12.0107
     140     1 C    6   -0.582389    7.770286    5.669533      4.00      12.0107
     141     1 C    6   -2.258038    7.066963    9.356468      4.00      12.0107
     142     1 C    6   11.205041    4.802836    5.391269      4.00      12.0107
     143     1 C    6    9.529392   10.034413    9.078204      4.00      12.0107
     144     1 C    6   -3.933688    7.770286   13.043401      4.00      12.0107
     145     1 C    6    8.922360    1.131574    1.982434      4.00      12.0107
     146     1 C    6    0.024642   10.738225   12.765303      4.00      12.0107
     147     1 C    6    5.051590    4.099024    1.704501      4.00      12.0107
     148     1 C    6    7.246711    1.835876    5.669368      4.00      12.0107
     149     1 C    6    5.571062    1.131574    9.356302      4.00      12.0107
     150     1 C    6    3.375941   10.738225    5.391435      4.00      12.0107
     151     1 C    6    1.700292    4.099024    9.078369      4.00      12.0107
     152     1 C    6    3.895413    1.835876   13.043236      4.00      12.0107
     153     1 C    6    8.922361    7.066474    1.982434      4.00      12.0107
     154     1 C    6    0.024642    4.803325   12.765303      4.00      12.0107
     155     1 C    6    5.051590   10.033924    1.704501      4.00      12.0107
     156     1 C    6    7.246711    7.770776    5.669368      4.00      12.0107
     157     1 C    6    5.571062    7.066474    9.356302      4.00      12.0107
     158     1 C    6    3.375941    4.803326    5.391435      4.00      12.0107
     159     1 C    6    1.700291   10.033924    9.078369      4.00      12.0107
     160     1 C    6    3.895412    7.770775   13.043236      4.00      12.0107
     161     2 H    1    6.388420    0.395381   12.239067      1.00       1.0079
     162     2 H    1    2.558583   11.474419    2.508670      1.00       1.0079
     163     2 H    1    0.882933    3.362831    6.195604      1.00       1.0079
     164     2 H    1   11.415368    2.572069    1.178264      1.00       1.0079
     165     2 H    1    9.739719    0.395381    4.865199      1.00       1.0079
     166     2 H    1   -0.792716   11.474419    9.882538      1.00       1.0079
     167     2 H    1   -2.468365    3.362831   13.569473      1.00       1.0079
     168     2 H    1    8.064069    2.572069    8.552133      1.00       1.0079
     169     2 H    1    6.388420    6.330281   12.239067      1.00       1.0079
     170     2 H    1    2.558583    5.539519    2.508670      1.00       1.0079
     171     2 H    1    0.882933    9.297731    6.195604      1.00       1.0079
     172     2 H    1   11.415368    8.506969    1.178264      1.00       1.0079
     173     2 H    1    9.739718    6.330280    4.865199      1.00       1.0079
     174     2 H    1   -0.792716    5.539519    9.882538      1.00       1.0079
     175     2 H    1   -2.468365    9.297730   13.569473      1.00       1.0079
     176     2 H    1    8.064069    8.506969    8.552133      1.00       1.0079
     177     2 H    1   -1.439195    0.397246   12.239098      1.00       1.0079
     178     2 H    1   10.386198   11.472554    2.508639      1.00       1.0079
     179     2 H    1    8.710549    3.364696    6.195574      1.00       1.0079
     180     2 H    1    3.587753    2.570204    1.178295      1.00       1.0079
     181     2 H    1    1.912103    0.397246    4.865229      1.00       1.0079
     182     2 H    1    7.034899   11.472554    9.882508      1.00       1.0079
     183     2 H    1    5.359250    3.364696   13.569442      1.00       1.0079
     184     2 H    1    0.236454    2.570204    8.552163      1.00       1.0079
     185     2 H    1   -1.439195    6.332146   12.239098      1.00       1.0079
     186     2 H    1   10.386198    5.537654    2.508639      1.00       1.0079
     187     2 H    1    8.710548    9.299596    6.195574      1.00       1.0079
     188     2 H    1    3.587753    8.505104    1.178295      1.00       1.0079
     189     2 H    1    1.912103    6.332146    4.865229      1.00       1.0079
     190     2 H    1    7.034899    5.537654    9.882508      1.00       1.0079
     191     2 H    1    5.359250    9.299595   13.569442      1.00       1.0079
     192     2 H    1    0.236454    8.505104    8.552163      1.00       1.0079
     193     2 H    1    7.071317    1.940693   14.059321      1.00       1.0079
     194     2 H    1    1.875686    9.929107    0.688416      1.00       1.0079
     195     2 H    1    0.200036    4.908143    4.375350      1.00       1.0079
     196     2 H    1   12.098265    1.026757    2.998518      1.00       1.0079
     197     2 H    1   10.422616    1.940693    6.685453      1.00       1.0079
     198     2 H    1   -1.475613    9.929107    8.062284      1.00       1.0079
     199     2 H    1   -3.151262    4.908143   11.749219      1.00       1.0079
     200     2 H    1    8.746966    1.026757   10.372387      1.00       1.0079
     201     2 H    1    7.071317    7.875593   14.059321      1.00       1.0079
     202     2 H    1    1.875686    3.994207    0.688416      1.00       1.0079
     203     2 H    1    0.200036   10.843043    4.375350      1.00       1.0079
     204     2 H    1   12.098265    6.961657    2.998518      1.00       1.0079
     205     2 H    1   10.422616    7.875592    6.685452      1.00       1.0079
     206     2 H    1   -1.475613    3.994207    8.062285      1.00       1.0079
     207     2 H    1   -3.151262   10.843042   11.749219      1.00       1.0079
     208     2 H    1    8.746966    6.961657   10.372387      1.00       1.0079
     209     2 H    1   -0.753719    1.942032   14.059886      1.00       1.0079
     210     2 H    1    9.700721    9.927768    0.687851      1.00       1.0079
     211     2 H    1    8.025072    4.909482    4.374785      1.00       1.0079
     212     2 H    1    4.273229    1.025418    2.999083      1.00       1.0079
     213     2 H    1    2.597580    1.942032    6.686017      1.00       1.0079
     214     2 H    1    6.349423    9.927768    8.061720      1.00       1.0079
     215     2 H    1    4.673774    4.909482   11.748654      1.00       1.0079
     216     2 H    1    0.921931    1.025418   10.372952      1.00       1.0079
     217     2 H    1   -0.753719    7.876931   14.059886      1.00       1.0079
     218     2 H    1    9.700721    3.992868    0.687851      1.00       1.0079
     219     2 H    1    8.025072   10.844381    4.374785      1.00       1.0079
     220     2 H    1    4.273229    6.960318    2.999083      1.00       1.0079
     221     2 H    1    2.597580    7.876931    6.686017      1.00       1.0079
     222     2 H    1    6.349423    3.992868    8.061720      1.00       1.0079
     223     2 H    1    4.673773   10.844381   11.748654      1.00       1.0079
     224     2 H    1    0.921931    6.960318   10.372952      1.00       1.0079
     225     2 H    1   -0.436230    2.459220    1.246325      1.00       1.0079
     226     2 H    1    9.383233    9.410580   13.501412      1.00       1.0079
     227     2 H    1   14.410180    5.426670    2.440610      1.00       1.0079
     228     2 H    1   -2.111879    0.508230    4.933259      1.00       1.0079
     229     2 H    1   -3.787529    2.459220    8.620193      1.00       1.0079
     230     2 H    1   12.734531    9.410580    6.127544      1.00       1.0079
     231     2 H    1   11.058882    5.426670    9.814478      1.00       1.0079
     232     2 H    1   -5.463178    0.508230   12.307128      1.00       1.0079
     233     2 H    1   -0.436230    8.394120    1.246324      1.00       1.0079
     234     2 H    1    9.383233    3.475680   13.501412      1.00       1.0079
     235     2 H    1   14.410180   11.361569    2.440610      1.00       1.0079
     236     2 H    1   -2.111879    6.443130    4.933259      1.00       1.0079
     237     2 H    1   -3.787529    8.394119    8.620193      1.00       1.0079
     238     2 H    1   12.734531    3.475680    6.127544      1.00       1.0079
     239     2 H    1   11.058882   11.361569    9.814478      1.00       1.0079
     240     2 H    1   -5.463178    6.443130   12.307128      1.00       1.0079
     241     2 H    1    7.391555    2.458426    1.247555      1.00       1.0079
     242     2 H    1    1.555448    9.411373   13.500182      1.00       1.0079
     243     2 H    1    6.582396    5.425876    2.439379      1.00       1.0079
     244     2 H    1    5.715906    0.509024    4.934489      1.00       1.0079
     245     2 H    1    4.040256    2.458426    8.621424      1.00       1.0079
     246     2 H    1    4.906746    9.411373    6.126314      1.00       1.0079
     247     2 H    1    3.231097    5.425876    9.813247      1.00       1.0079
     248     2 H    1    2.364607    0.509024   12.308358      1.00       1.0079
     249     2 H    1    7.391555    8.393326    1.247555      1.00       1.0079
     250     2 H    1    1.555448    3.476474   13.500182      1.00       1.0079
     251     2 H    1    6.582396   11.360776    2.439380      1.00       1.0079
     252     2 H    1    5.715906    6.443924    4.934489      1.00       1.0079
     253     2 H    1    4.040256    8.393326    8.621424      1.00       1.0079
     254     2 H    1    4.906746    3.476474    6.126314      1.00       1.0079
     255     2 H    1    3.231097   11.360776    9.813248      1.00       1.0079
     256     2 H    1    2.364607    6.443924   12.308358      1.00       1.0079
     257     2 H    1    1.392908    1.809166    2.792217      1.00       1.0079
     258     2 H    1    7.554094   10.060634   11.955520      1.00       1.0079
     259     2 H    1   12.581042    4.776616    0.894717      1.00       1.0079
     260     2 H    1   -0.282741    1.158284    6.479151      1.00       1.0079
     261     2 H    1   -1.958390    1.809166   10.166086      1.00       1.0079
     262     2 H    1   10.905392   10.060634    4.581651      1.00       1.0079
     263     2 H    1    9.229743    4.776616    8.268586      1.00       1.0079
     264     2 H    1   -3.634039    1.158284   13.853020      1.00       1.0079
     265     2 H    1    1.392908    7.744066    2.792217      1.00       1.0079
     266     2 H    1    7.554094    4.125734   11.955520      1.00       1.0079
     267     2 H    1   12.581042   10.711516    0.894717      1.00       1.0079
     268     2 H    1   -0.282741    7.093184    6.479151      1.00       1.0079
     269     2 H    1   -1.958390    7.744066   10.166085      1.00       1.0079
     270     2 H    1   10.905392    4.125734    4.581652      1.00       1.0079
     271     2 H    1    9.229743   10.711516    8.268586      1.00       1.0079
     272     2 H    1   -3.634039    7.093184   13.853020      1.00       1.0079
     273     2 H    1    9.220096    1.808609    2.793086      1.00       1.0079
     274     2 H    1   -0.273093   10.061190   11.954651      1.00       1.0079
     275     2 H    1    4.753855    4.776059    0.893848      1.00       1.0079
     276     2 H    1    7.544446    1.158841    6.480020      1.00       1.0079
     277     2 H    1    5.868797    1.808609   10.166955      1.00       1.0079
     278     2 H    1    3.078205   10.061190    4.580782      1.00       1.0079
     279     2 H    1    1.402556    4.776059    8.267717      1.00       1.0079
     280     2 H    1    4.193148    1.158841   13.853889      1.00       1.0079
     281     2 H    1    9.220096    7.743509    2.793086      1.00       1.0079
     282     2 H    1   -0.273093    4.126290   11.954651      1.00       1.0079
     283     2 H    1    4.753855   10.710959    0.893848      1.00       1.0079
     284     2 H    1    7.544447    7.093740    6.480020      1.00       1.0079
     285     2 H    1    5.868797    7.743509   10.166955      1.00       1.0079
     286     2 H    1    3.078205    4.126290    4.580782      1.00       1.0079
     287     2 H    1    1.402556   10.710959    8.267717      1.00       1.0079
     288     2 H    1    4.193148    7.093740   13.853889      1.00       1.0079




 SCF PARAMETERS         Density guess:                                    ATOMIC
                        --------------------------------------------------------
                        max_scf:                                             200
                        max_scf_history:                                       0
                        max_diis:                                              4
                        --------------------------------------------------------
                        eps_scf:                                        1.00E-05
                        eps_scf_history:                                0.00E+00
                        eps_diis:                                       1.00E-01
                        eps_eigval:                                     1.00E-05
                        --------------------------------------------------------
                        level_shift [a.u.]:                                 0.00
                        --------------------------------------------------------
                        Mixing method:                              PULAY_MIXING
                                                charge density mixing in g-space
                        --------------------------------------------------------
                        No outer SCF

 PW_GRID: Information for grid number                                          1
 PW_GRID: Cutoff [a.u.]                                                    100.0
 PW_GRID: spherical cutoff:                                                   NO
 PW_GRID:   Bounds   1            -67      67                Points:         135
 PW_GRID:   Bounds   2            -54      53                Points:         108
 PW_GRID:   Bounds   3            -72      71                Points:         144
 PW_GRID: Volume element (a.u.^3)  0.8805E-02     Volume (a.u.^3)     18487.0928
 PW_GRID: Grid span                                                    FULLSPACE

 PW_GRID: Information for grid number                                          2
 PW_GRID: Cutoff [a.u.]                                                     33.3
 PW_GRID: spherical cutoff:                                                   NO
 PW_GRID:   Bounds   1            -40      39                Points:          80
 PW_GRID:   Bounds   2            -30      29                Points:          60
 PW_GRID:   Bounds   3            -40      39                Points:          80
 PW_GRID: Volume element (a.u.^3)  0.4814E-01     Volume (a.u.^3)     18487.0928
 PW_GRID: Grid span                                                    FULLSPACE

 PW_GRID: Information for grid number                                          3
 PW_GRID: Cutoff [a.u.]                                                     11.1
 PW_GRID: spherical cutoff:                                                   NO
 PW_GRID:   Bounds   1            -22      22                Points:          45
 PW_GRID:   Bounds   2            -18      17                Points:          36
 PW_GRID:   Bounds   3            -22      22                Points:          45
 PW_GRID: Volume element (a.u.^3)  0.2536         Volume (a.u.^3)     18487.0928
 PW_GRID: Grid span                                                    FULLSPACE

 PW_GRID: Information for grid number                                          4
 PW_GRID: Cutoff [a.u.]                                                      3.7
 PW_GRID: spherical cutoff:                                                   NO
 PW_GRID:   Bounds   1            -12      12                Points:          25
 PW_GRID:   Bounds   2            -10       9                Points:          20
 PW_GRID:   Bounds   3            -13      13                Points:          27
 PW_GRID: Volume element (a.u.^3)   1.369         Volume (a.u.^3)     18487.0928
 PW_GRID: Grid span                                                    FULLSPACE

 RS_GRID: Information for grid number                                          1
 RS_GRID:   Bounds   1            -67      67                Points:         135
 RS_GRID:   Bounds   2            -54      53                Points:         108
 RS_GRID:   Bounds   3            -72      71                Points:         144

 RS_GRID: Information for grid number                                          2
 RS_GRID:   Bounds   1            -40      39                Points:          80
 RS_GRID:   Bounds   2            -30      29                Points:          60
 RS_GRID:   Bounds   3            -40      39                Points:          80

 RS_GRID: Information for grid number                                          3
 RS_GRID:   Bounds   1            -22      22                Points:          45
 RS_GRID:   Bounds   2            -18      17                Points:          36
 RS_GRID:   Bounds   3            -22      22                Points:          45

 RS_GRID: Information for grid number                                          4
 RS_GRID:   Bounds   1            -12      12                Points:          25
 RS_GRID:   Bounds   2            -10       9                Points:          20
 RS_GRID:   Bounds   3            -13      13                Points:          27

 DISTRIBUTION OF THE PARTICLES (ROWS)
              Process row      Number of particles         Number of matrix rows
                        0                      288                            -1
                      Sum                      288                            -1

 DISTRIBUTION OF THE PARTICLES (COLUMNS)
              Process col      Number of particles      Number of matrix columns
                        0                      288                            -1
                      Sum                      288                            -1

 *******************************************************************************
 ***                     STARTING GEOMETRY OPTIMIZATION                      ***
 ***                                   BFGS                                  ***
 *******************************************************************************

 DISTRIBUTION OF THE NEIGHBOR LISTS
              Total number of particle pairs:                              30176
              Total number of matrix elements:                           3167456
              Average number of particle pairs:                            30176
              Maximum number of particle pairs:                            30176
              Average number of matrix element:                          3167456
              Maximum number of matrix elements:                         3167456


 DISTRIBUTION OF THE OVERLAP MATRIX
              Number  of non-zero blocks:                                  27120
              Percentage non-zero blocks:                                  65.17
              Average number of blocks per CPU:                            27120
              Maximum number of blocks per CPU:                            27120
              Average number of matrix elements per CPU:                 2743418
              Maximum number of matrix elements per CPU:                 2743418

 Number of electrons:                                                        768
 Number of occupied orbitals:                                                384
 Number of molecular orbitals:                                               384

 Number of orbital functions:                                               2720
 Number of independent orbital functions:                                   2720

 Extrapolation method: initial_guess

 Atomic guess: The first density matrix is obtained in terms of atomic orbitals
               and electronic configurations assigned to each atomic kind

 Guess for atomic kind: C

 Electronic structure
    Total number of core electrons                                          2.00
    Total number of valence electrons                                       4.00
    Total number of electrons                                               6.00
    Multiplicity                                                   not specified
    S   [  2.00] 2.00
    P      2.00
 

 *******************************************************************************
                  Iteration          Convergence                     Energy [au]
 *******************************************************************************
                          1        0.321529                      -5.171932324852
                          2        0.238075                      -5.236672368274
                          3        0.696842E-03                  -5.281562254989
                          4        0.534015E-05                  -5.281562669422
                          5        0.268158E-05                  -5.281562669440
                          6        0.179177E-05                  -5.281562669443
                          7        0.125670E-07                  -5.281562669446

 Energy components [Hartree]           Total Energy ::           -5.281562669446
                                        Band Energy ::           -1.319840429671
                                     Kinetic Energy ::            3.390125259271
                                   Potential Energy ::           -8.671687928717
                                      Virial (-V/T) ::            2.557925523549
                                        Core Energy ::           -8.289150924429
                                          XC Energy ::           -1.375859140966
                                     Coulomb Energy ::            4.383447395950
                       Total Pseudopotential Energy ::          -11.713639117224
                       Local Pseudopotential Energy ::          -12.358677657000
                    Nonlocal Pseudopotential Energy ::            0.645038539776
                                        Confinement ::            0.343629335243

 Orbital energies  State     L     Occupation   Energy[a.u.]          Energy[eV]

                       1     0          2.000      -0.484963          -13.196509
 
                       1     1          2.000      -0.174957           -4.760833
 

 Guess for atomic kind: H

 Electronic structure
    Total number of core electrons                                          0.00
    Total number of valence electrons                                       1.00
    Total number of electrons                                               1.00
    Multiplicity                                                   not specified
    S      1.00
 

 *******************************************************************************
                  Iteration          Convergence                     Energy [au]
 *******************************************************************************
                          1        0.144530E-02                  -0.421821477952
                          2        0.152715E-03                  -0.421823592621
                          3        0.191771E-07                  -0.421823616492

 Energy components [Hartree]           Total Energy ::           -0.421823616492
                                        Band Energy ::           -0.187807257666
                                     Kinetic Energy ::            0.477232994467
                                   Potential Energy ::           -0.899056610959
                                      Virial (-V/T) ::            1.883894494688
                                        Core Energy ::           -0.480275199607
                                          XC Energy ::           -0.252117295815
                                     Coulomb Energy ::            0.310568878930
                       Total Pseudopotential Energy ::           -0.974172273113
                       Local Pseudopotential Energy ::           -0.974172273113
                    Nonlocal Pseudopotential Energy ::            0.000000000000
                                        Confinement ::            0.166640790389

 Orbital energies  State     L     Occupation   Energy[a.u.]          Energy[eV]

                       1     0          1.000      -0.187807           -5.110495
 
 Re-scaling the density matrix to get the right number of electrons
                  # Electrons              Trace(P)               Scaling factor
                          768               768.000                        1.000


 SCF WAVEFUNCTION OPTIMIZATION

  Step     Update method      Time    Convergence         Total energy    Change
  ------------------------------------------------------------------------------

  Trace(PS):                                  768.0000000000
  Electronic density on regular grids:       -767.9998036185        0.0001963815
  Core density on regular grids:              767.9999435478       -0.0000564522
  Total charge density on r-space grids:        0.0001399293
  Total charge density g-space grids:           0.0001399293

     1 NoMix/Diag. 0.50E+00   15.2     2.40294878      -977.4598471117 -9.77E+02

  Trace(PS):                                  768.0000000000
  Electronic density on regular grids:       -767.9997714133        0.0002285867
  Core density on regular grids:              767.9999435478       -0.0000564522
  Total charge density on r-space grids:        0.0001721346
  Total charge density g-space grids:           0.0001721346

     2 Pulay/Diag. 0.50E+00   22.0     0.41854581      -906.5344201555  7.09E+01

  Trace(PS):                                  768.0000000000
  Electronic density on regular grids:       -767.9997672073        0.0002327927
  Core density on regular grids:              767.9999435478       -0.0000564522
  Total charge density on r-space grids:        0.0001763405
  Total charge density g-space grids:           0.0001763405

     3 Pulay/Diag. 0.50E+00   21.0     0.21228851      -970.7716125365 -6.42E+01

  Trace(PS):                                  768.0000000000
  Electronic density on regular grids:       -767.9997707721        0.0002292279
  Core density on regular grids:              767.9999435478       -0.0000564522
  Total charge density on r-space grids:        0.0001727757
  Total charge density g-space grids:           0.0001727757

     4 Pulay/Diag. 0.50E+00   21.1     0.07124853      -983.7896023349 -1.30E+01

  Trace(PS):                                  768.0000000000
  Electronic density on regular grids:       -767.9997709408        0.0002290592
  Core density on regular grids:              767.9999435478       -0.0000564522
  Total charge density on r-space grids:        0.0001726070
  Total charge density g-space grids:           0.0001726070

     5 Pulay/Diag. 0.50E+00   21.2     0.04848323      -986.0825215718 -2.29E+00

  Trace(PS):                                  768.0000000000
  Electronic density on regular grids:       -767.9997710330        0.0002289670
  Core density on regular grids:              767.9999435478       -0.0000564522
  Total charge density on r-space grids:        0.0001725148
  Total charge density g-space grids:           0.0001725148

     6 Pulay/Diag. 0.50E+00   22.1     0.00921566      -986.0447942892  3.77E-02

  Trace(PS):                                  768.0000000000
  Electronic density on regular grids:       -767.9997710564        0.0002289436
  Core density on regular grids:              767.9999435478       -0.0000564522
  Total charge density on r-space grids:        0.0001724914
  Total charge density g-space grids:           0.0001724914

     7 Pulay/Diag. 0.50E+00   21.1     0.00203560      -985.8165514610  2.28E-01

  Trace(PS):                                  768.0000000000
  Electronic density on regular grids:       -767.9997710588        0.0002289412
  Core density on regular grids:              767.9999435478       -0.0000564522
  Total charge density on r-space grids:        0.0001724890
  Total charge density g-space grids:           0.0001724890

     8 Pulay/Diag. 0.50E+00   21.3     0.00049306      -985.7724903647  4.41E-02

  Trace(PS):                                  768.0000000000
  Electronic density on regular grids:       -767.9997710586        0.0002289414
  Core density on regular grids:              767.9999435478       -0.0000564522
  Total charge density on r-space grids:        0.0001724892
  Total charge density g-space grids:           0.0001724892

     9 Pulay/Diag. 0.50E+00   21.2     0.00005485      -985.7808271486 -8.34E-03

  Trace(PS):                                  768.0000000000
  Electronic density on regular grids:       -767.9997710602        0.0002289398
  Core density on regular grids:              767.9999435478       -0.0000564522
  Total charge density on r-space grids:        0.0001724876
  Total charge density g-space grids:           0.0001724876

    10 Pulay/Diag. 0.50E+00   22.1     0.00005234      -985.7785836340  2.24E-03

  Trace(PS):                                  768.0000000000
  Electronic density on regular grids:       -767.9997710604        0.0002289396
  Core density on regular grids:              767.9999435478       -0.0000564522
  Total charge density on r-space grids:        0.0001724874
  Total charge density g-space grids:           0.0001724874

    11 Pulay/Diag. 0.50E+00   21.1     0.00002500      -985.7766703177  1.91E-03

  Trace(PS):                                  768.0000000000
  Electronic density on regular grids:       -767.9997710601        0.0002289399
  Core density on regular grids:              767.9999435478       -0.0000564522
  Total charge density on r-space grids:        0.0001724877
  Total charge density g-space grids:           0.0001724877

    12 Pulay/Diag. 0.50E+00   21.3     0.00001829      -985.7768101358 -1.40E-04

  Trace(PS):                                  768.0000000000
  Electronic density on regular grids:       -767.9997710601        0.0002289399
  Core density on regular grids:              767.9999435478       -0.0000564522
  Total charge density on r-space grids:        0.0001724877
  Total charge density g-space grids:           0.0001724877

    13 Pulay/Diag. 0.50E+00   21.4     0.00000215      -985.7771185834 -3.08E-04

  *** SCF run converged in    13 steps ***


  Electronic density on regular grids:       -767.9997710601        0.0002289399
  Core density on regular grids:              767.9999435478       -0.0000564522
  Total charge density on r-space grids:        0.0001724877
  Total charge density g-space grids:           0.0001724877

  Overlap energy of the core charge distribution:               0.00006790354616
  Self energy of the core charge distribution:              -2314.14193501771570
  Core Hamiltonian energy:                                    730.05329436179977
  Hartree energy:                                             923.62334409741925
  Exchange-correlation energy:                               -324.63100707710407
  Dispersion energy:                                           -0.68088285133158

  Total energy:                                              -985.77711858338625


 MULLIKEN POPULATION ANALYSIS

 #  Atom  Element  Kind  Atomic population                Net charge
       1     C        1          4.412929                 -0.412929
       2     C        1          4.412930                 -0.412930
       3     C        1          4.412989                 -0.412989
       4     C        1          4.412683                 -0.412683
       5     C        1          4.412744                 -0.412744
       6     C        1          4.412744                 -0.412744
       7     C        1          4.412683                 -0.412683
       8     C        1          4.412988                 -0.412988
       9     C        1          4.412930                 -0.412930
      10     C        1          4.412929                 -0.412929
      11     C        1          4.412990                 -0.412990
      12     C        1          4.412685                 -0.412685
      13     C        1          4.412744                 -0.412744
      14     C        1          4.412744                 -0.412744
      15     C        1          4.412684                 -0.412684
      16     C        1          4.412989                 -0.412989
      17     C        1          4.420491                 -0.420491
      18     C        1          4.420492                 -0.420492
      19     C        1          4.420545                 -0.420545
      20     C        1          4.420242                 -0.420242
      21     C        1          4.420294                 -0.420294
      22     C        1          4.420294                 -0.420294
      23     C        1          4.420242                 -0.420242
      24     C        1          4.420544                 -0.420544
      25     C        1          4.420492                 -0.420492
      26     C        1          4.420491                 -0.420491
      27     C        1          4.420546                 -0.420546
      28     C        1          4.420244                 -0.420244
      29     C        1          4.420294                 -0.420294
      30     C        1          4.420293                 -0.420293
      31     C        1          4.420243                 -0.420243
      32     C        1          4.420546                 -0.420546
      33     C        1          4.120197                 -0.120197
      34     C        1          4.120197                 -0.120197
      35     C        1          4.120541                 -0.120541
      36     C        1          4.120557                 -0.120557
      37     C        1          4.120913                 -0.120913
      38     C        1          4.120912                 -0.120912
      39     C        1          4.120556                 -0.120556
      40     C        1          4.120542                 -0.120542
      41     C        1          4.120196                 -0.120196
      42     C        1          4.120196                 -0.120196
      43     C        1          4.120541                 -0.120541
      44     C        1          4.120554                 -0.120554
      45     C        1          4.120912                 -0.120912
      46     C        1          4.120912                 -0.120912
      47     C        1          4.120557                 -0.120557
      48     C        1          4.120541                 -0.120541
      49     C        1          4.115116                 -0.115116
      50     C        1          4.115116                 -0.115116
      51     C        1          4.115411                 -0.115411
      52     C        1          4.115476                 -0.115476
      53     C        1          4.115775                 -0.115775
      54     C        1          4.115775                 -0.115775
      55     C        1          4.115474                 -0.115474
      56     C        1          4.115413                 -0.115413
      57     C        1          4.115115                 -0.115115
      58     C        1          4.115116                 -0.115116
      59     C        1          4.115412                 -0.115412
      60     C        1          4.115473                 -0.115473
      61     C        1          4.115775                 -0.115775
      62     C        1          4.115775                 -0.115775
      63     C        1          4.115475                 -0.115475
      64     C        1          4.115411                 -0.115411
      65     C        1          4.329064                 -0.329064
      66     C        1          4.329064                 -0.329064
      67     C        1          4.329864                 -0.329864
      68     C        1          4.329071                 -0.329071
      69     C        1          4.329862                 -0.329862
      70     C        1          4.329863                 -0.329863
      71     C        1          4.329072                 -0.329072
      72     C        1          4.329863                 -0.329863
      73     C        1          4.329064                 -0.329064
      74     C        1          4.329064                 -0.329064
      75     C        1          4.329863                 -0.329863
      76     C        1          4.329073                 -0.329073
      77     C        1          4.329863                 -0.329863
      78     C        1          4.329862                 -0.329862
      79     C        1          4.329072                 -0.329072
      80     C        1          4.329864                 -0.329864
      81     C        1          4.325531                 -0.325531
      82     C        1          4.325530                 -0.325530
      83     C        1          4.326381                 -0.326381
      84     C        1          4.325520                 -0.325520
      85     C        1          4.326377                 -0.326377
      86     C        1          4.326377                 -0.326377
      87     C        1          4.325521                 -0.325521
      88     C        1          4.326380                 -0.326380
      89     C        1          4.325531                 -0.325531
      90     C        1          4.325530                 -0.325530
      91     C        1          4.326380                 -0.326380
      92     C        1          4.325522                 -0.325522
      93     C        1          4.326377                 -0.326377
      94     C        1          4.326377                 -0.326377
      95     C        1          4.325520                 -0.325520
      96     C        1          4.326382                 -0.326382
      97     C        1          4.116126                 -0.116126
      98     C        1          4.116126                 -0.116126
      99     C        1          4.115887                 -0.115887
     100     C        1          4.115781                 -0.115781
     101     C        1          4.115540                 -0.115540
     102     C        1          4.115540                 -0.115540
     103     C        1          4.115779                 -0.115779
     104     C        1          4.115888                 -0.115888
     105     C        1          4.116126                 -0.116126
     106     C        1          4.116126                 -0.116126
     107     C        1          4.115889                 -0.115889
     108     C        1          4.115781                 -0.115781
     109     C        1          4.115541                 -0.115541
     110     C        1          4.115540                 -0.115540
     111     C        1          4.115781                 -0.115781
     112     C        1          4.115887                 -0.115887
     113     C        1          4.129155                 -0.129155
     114     C        1          4.129156                 -0.129156
     115     C        1          4.128874                 -0.128874
     116     C        1          4.128823                 -0.128823
     117     C        1          4.128522                 -0.128522
     118     C        1          4.128522                 -0.128522
     119     C        1          4.128820                 -0.128820
     120     C        1          4.128875                 -0.128875
     121     C        1          4.129156                 -0.129156
     122     C        1          4.129156                 -0.129156
     123     C        1          4.128877                 -0.128877
     124     C        1          4.128822                 -0.128822
     125     C        1          4.128522                 -0.128522
     126     C        1          4.128522                 -0.128522
     127     C        1          4.128823                 -0.128823
     128     C        1          4.128874                 -0.128874
     129     C        1          4.420652                 -0.420652
     130     C        1          4.420653                 -0.420653
     131     C        1          4.419723                 -0.419723
     132     C        1          4.420754                 -0.420754
     133     C        1          4.419830                 -0.419830
     134     C        1          4.419830                 -0.419830
     135     C        1          4.420755                 -0.420755
     136     C        1          4.419723                 -0.419723
     137     C        1          4.420652                 -0.420652
     138     C        1          4.420652                 -0.420652
     139     C        1          4.419722                 -0.419722
     140     C        1          4.420754                 -0.420754
     141     C        1          4.419830                 -0.419830
     142     C        1          4.419830                 -0.419830
     143     C        1          4.420754                 -0.420754
     144     C        1          4.419722                 -0.419722
     145     C        1          4.415892                 -0.415892
     146     C        1          4.415892                 -0.415892
     147     C        1          4.414967                 -0.414967
     148     C        1          4.416016                 -0.416016
     149     C        1          4.415099                 -0.415099
     150     C        1          4.415099                 -0.415099
     151     C        1          4.416017                 -0.416017
     152     C        1          4.414967                 -0.414967
     153     C        1          4.415892                 -0.415892
     154     C        1          4.415892                 -0.415892
     155     C        1          4.414966                 -0.414966
     156     C        1          4.416016                 -0.416016
     157     C        1          4.415099                 -0.415099
     158     C        1          4.415099                 -0.415099
     159     C        1          4.416016                 -0.416016
     160     C        1          4.414967                 -0.414967
     161     H        2          0.695698                  0.304302
     162     H        2          0.695698                  0.304302
     163     H        2          0.695710                  0.304290
     164     H        2          0.695555                  0.304445
     165     H        2          0.695565                  0.304435
     166     H        2          0.695565                  0.304435
     167     H        2          0.695555                  0.304445
     168     H        2          0.695710                  0.304290
     169     H        2          0.695698                  0.304302
     170     H        2          0.695698                  0.304302
     171     H        2          0.695710                  0.304290
     172     H        2          0.695556                  0.304444
     173     H        2          0.695566                  0.304434
     174     H        2          0.695565                  0.304435
     175     H        2          0.695555                  0.304445
     176     H        2          0.695711                  0.304289
     177     H        2          0.693216                  0.306784
     178     H        2          0.693216                  0.306784
     179     H        2          0.693226                  0.306774
     180     H        2          0.693064                  0.306936
     181     H        2          0.693076                  0.306924
     182     H        2          0.693076                  0.306924
     183     H        2          0.693065                  0.306935
     184     H        2          0.693226                  0.306774
     185     H        2          0.693216                  0.306784
     186     H        2          0.693216                  0.306784
     187     H        2          0.693226                  0.306774
     188     H        2          0.693065                  0.306935
     189     H        2          0.693076                  0.306924
     190     H        2          0.693075                  0.306925
     191     H        2          0.693064                  0.306936
     192     H        2          0.693226                  0.306774
     193     H        2          0.648157                  0.351843
     194     H        2          0.648156                  0.351844
     195     H        2          0.647901                  0.352099
     196     H        2          0.648451                  0.351549
     197     H        2          0.648195                  0.351805
     198     H        2          0.648194                  0.351806
     199     H        2          0.648452                  0.351548
     200     H        2          0.647901                  0.352099
     201     H        2          0.648156                  0.351844
     202     H        2          0.648157                  0.351843
     203     H        2          0.647900                  0.352100
     204     H        2          0.648451                  0.351549
     205     H        2          0.648194                  0.351806
     206     H        2          0.648195                  0.351805
     207     H        2          0.648451                  0.351549
     208     H        2          0.647900                  0.352100
     209     H        2          0.647746                  0.352254
     210     H        2          0.647746                  0.352254
     211     H        2          0.647507                  0.352493
     212     H        2          0.648047                  0.351953
     213     H        2          0.647806                  0.352194
     214     H        2          0.647805                  0.352195
     215     H        2          0.648047                  0.351953
     216     H        2          0.647507                  0.352493
     217     H        2          0.647745                  0.352255
     218     H        2          0.647746                  0.352254
     219     H        2          0.647506                  0.352494
     220     H        2          0.648046                  0.351954
     221     H        2          0.647805                  0.352195
     222     H        2          0.647806                  0.352194
     223     H        2          0.648046                  0.351954
     224     H        2          0.647506                  0.352494
     225     H        2          0.595094                  0.404906
     226     H        2          0.595094                  0.404906
     227     H        2          0.595148                  0.404852
     228     H        2          0.594785                  0.405215
     229     H        2          0.594836                  0.405164
     230     H        2          0.594836                  0.405164
     231     H        2          0.594785                  0.405215
[...]
     138     C        1          4.404661                 -0.404661
     139     C        1          4.403807                 -0.403807
     140     C        1          4.405261                 -0.405261
     141     C        1          4.404183                 -0.404183
     142     C        1          4.403904                 -0.403904
     143     C        1          4.404583                 -0.404583
     144     C        1          4.403264                 -0.403264
     145     C        1          4.398989                 -0.398989
     146     C        1          4.398915                 -0.398915
     147     C        1          4.397934                 -0.397934
     148     C        1          4.400291                 -0.400291
     149     C        1          4.396803                 -0.396803
     150     C        1          4.400284                 -0.400284
     151     C        1          4.399180                 -0.399180
     152     C        1          4.398440                 -0.398440
     153     C        1          4.399022                 -0.399022
     154     C        1          4.398698                 -0.398698
     155     C        1          4.399138                 -0.399138
     156     C        1          4.399260                 -0.399260
     157     C        1          4.398642                 -0.398642
     158     C        1          4.398551                 -0.398551
     159     C        1          4.398795                 -0.398795
     160     C        1          4.398048                 -0.398048
     161     H        2          0.703839                  0.296161
     162     H        2          0.703890                  0.296110
     163     H        2          0.706065                  0.293935
     164     H        2          0.706478                  0.293522
     165     H        2          0.705872                  0.294128
     166     H        2          0.705852                  0.294148
     167     H        2          0.705669                  0.294331
     168     H        2          0.706003                  0.293997
     169     H        2          0.706081                  0.293919
     170     H        2          0.705720                  0.294280
     171     H        2          0.706039                  0.293961
     172     H        2          0.705929                  0.294071
     173     H        2          0.705897                  0.294103
     174     H        2          0.705829                  0.294171
     175     H        2          0.705284                  0.294716
     176     H        2          0.706030                  0.293970
     177     H        2          0.704070                  0.295930
     178     H        2          0.704243                  0.295757
     179     H        2          0.704313                  0.295687
     180     H        2          0.703515                  0.296485
     181     H        2          0.704060                  0.295940
     182     H        2          0.704171                  0.295829
     183     H        2          0.703552                  0.296448
     184     H        2          0.704267                  0.295733
     185     H        2          0.704198                  0.295802
     186     H        2          0.704035                  0.295965
     187     H        2          0.704355                  0.295645
     188     H        2          0.704637                  0.295363
     189     H        2          0.704236                  0.295764
     190     H        2          0.704141                  0.295859
     191     H        2          0.703962                  0.296038
     192     H        2          0.704286                  0.295714
     193     H        2          0.664507                  0.335493
     194     H        2          0.659856                  0.340144
     195     H        2          0.660673                  0.339327
     196     H        2          0.661317                  0.338683
     197     H        2          0.660883                  0.339117
     198     H        2          0.660969                  0.339031
     199     H        2          0.661070                  0.338930
     200     H        2          0.660772                  0.339228
     201     H        2          0.661299                  0.338701
     202     H        2          0.660333                  0.339667
     203     H        2          0.660641                  0.339359
     204     H        2          0.661287                  0.338713
     205     H        2          0.660944                  0.339056
     206     H        2          0.660908                  0.339092
     207     H        2          0.661229                  0.338771
     208     H        2          0.660643                  0.339357
     209     H        2          0.659516                  0.340484
     210     H        2          0.659382                  0.340618
     211     H        2          0.659201                  0.340799
     212     H        2          0.658404                  0.341596
     213     H        2          0.659270                  0.340730
     214     H        2          0.660001                  0.339999
     215     H        2          0.660022                  0.339978
     216     H        2          0.659257                  0.340743
     217     H        2          0.659380                  0.340620
     218     H        2          0.659449                  0.340551
     219     H        2          0.659253                  0.340747
     220     H        2          0.659474                  0.340526
     221     H        2          0.659519                  0.340481
     222     H        2          0.659587                  0.340413
     223     H        2          0.660190                  0.339810
     224     H        2          0.659247                  0.340753
     225     H        2          0.609563                  0.390437
     226     H        2          0.611692                  0.388308
     227     H        2          0.609181                  0.390819
     228     H        2          0.609295                  0.390705
     229     H        2          0.608911                  0.391089
     230     H        2          0.608924                  0.391076
     231     H        2          0.608925                  0.391075
     232     H        2          0.608438                  0.391562
     233     H        2          0.609860                  0.390140
     234     H        2          0.608287                  0.391713
     235     H        2          0.609917                  0.390083
     236     H        2          0.609091                  0.390909
     237     H        2          0.608890                  0.391110
     238     H        2          0.608977                  0.391023
     239     H        2          0.609008                  0.390992
     240     H        2          0.609212                  0.390788
     241     H        2          0.605687                  0.394313
     242     H        2          0.605553                  0.394447
     243     H        2          0.605371                  0.394629
     244     H        2          0.604894                  0.395106
     245     H        2          0.605632                  0.394368
     246     H        2          0.604885                  0.395115
     247     H        2          0.605328                  0.394672
     248     H        2          0.605766                  0.394234
     249     H        2          0.605587                  0.394413
     250     H        2          0.605631                  0.394369
     251     H        2          0.605145                  0.394855
     252     H        2          0.605373                  0.394627
     253     H        2          0.605316                  0.394684
     254     H        2          0.605279                  0.394721
     255     H        2          0.605539                  0.394461
     256     H        2          0.605632                  0.394368
     257     H        2          0.671510                  0.328490
     258     H        2          0.674067                  0.325933
     259     H        2          0.673559                  0.326441
     260     H        2          0.672496                  0.327504
     261     H        2          0.673039                  0.326961
     262     H        2          0.673098                  0.326902
     263     H        2          0.672465                  0.327535
     264     H        2          0.672201                  0.327799
     265     H        2          0.672835                  0.327165
     266     H        2          0.672961                  0.327039
     267     H        2          0.674258                  0.325742
     268     H        2          0.672444                  0.327556
     269     H        2          0.673008                  0.326992
     270     H        2          0.673118                  0.326882
     271     H        2          0.672516                  0.327484
     272     H        2          0.673314                  0.326686
     273     H        2          0.673403                  0.326597
     274     H        2          0.673421                  0.326579
     275     H        2          0.673596                  0.326404
     276     H        2          0.672976                  0.327024
     277     H        2          0.673826                  0.326174
     278     H        2          0.673057                  0.326943
     279     H        2          0.672972                  0.327028
     280     H        2          0.674618                  0.325382
     281     H        2          0.673457                  0.326543
     282     H        2          0.673394                  0.326606
     283     H        2          0.672767                  0.327233
     284     H        2          0.672924                  0.327076
     285     H        2          0.673419                  0.326581
     286     H        2          0.673559                  0.326441
     287     H        2          0.672944                  0.327056
     288     H        2          0.674123                  0.325877
 # Total charge                768.000000                 -0.000000


 ENERGY| Total FORCE_EVAL ( QS ) energy (a.u.):             -985.817769451380286


 -------------------------------------------------------------------------------
 -                                                                             -
 -                                DBCSR STATISTICS                             -
 -                                                                             -
 -------------------------------------------------------------------------------
 COUNTER                                      CPU                  GPU      GPU%
 number of processed stacks                 92116                    0       0.0
 matmuls inhomo. stacks                         0                    0       0.0
 matmuls total                           91440455                    0       0.0
 flops   5 x   16 x    5               8559052800                    0       0.0
 flops   5 x   16 x   13              42604323840                    0       0.0
 flops  13 x   16 x    5              42604323840                    0       0.0
 flops  13 x   16 x   13             182839028736                    0       0.0
 flops   5 x    5 x  384              14535667200                    0       0.0
 flops  13 x    5 x  384              70298092800                    0       0.0
 flops   5 x   13 x  384              71711328000                    0       0.0
 flops  13 x   13 x  384             306976899840                    0       0.0
 flops total                         740128717056                    0       0.0
 marketing flops                    1625043763200
 -------------------------------------------------------------------------------

 -------------------------------------------------------------------------------
 ----                             MULTIGRID INFO                            ----
 -------------------------------------------------------------------------------
 count for grid        1:         478874          cutoff [a.u.]          100.00
 count for grid        2:        1179590          cutoff [a.u.]           33.33
 count for grid        3:        1140110          cutoff [a.u.]           11.11
 count for grid        4:         259472          cutoff [a.u.]            3.70
 total gridlevel count  :        3058046

 -------------------------------------------------------------------------------
 -                                                                             -
 -                         MESSAGE PASSING PERFORMANCE                         -
 -                                                                             -
 -------------------------------------------------------------------------------

 ROUTINE             CALLS  TOT TIME [s]  AVE VOLUME [Bytes]  PERFORMANCE [MB/s]
 MP_Group                4         0.000
 MP_Bcast              200         0.001                  4.                1.00
 MP_Allreduce         1941         0.004               1778.              932.61
 MP_Sync                 4         0.000
 -------------------------------------------------------------------------------


 -------------------------------------------------------------------------------
 -                                                                             -
 -                           R E F E R E N C E S                               -
 -                                                                             -
 -------------------------------------------------------------------------------
 
 CP2K version 2.5.1, the CP2K developers group (2014).
 CP2K is freely available from http://www.cp2k.org/ .

 Hutter, J; Iannuzzi, M; Schiffmann, F; VandeVondele, J. 
 WILEY INTERDISCIPLINARY REVIEWS-COMPUTATIONAL MOLECULAR SCIENCE, 4 (1), 15-25 (2014). 
 CP2K: atomistic simulations of condensed matter systems.
 http://dx.doi.org/10.1002/wcms.1159


 Grimme, S. 
 JOURNAL OF COMPUTATIONAL CHEMISTRY, 27 (15), 1787-1799 (2006). 
 Semiempirical GGA-type density functional constructed with a long-range
 dispersion correction.
 http://dx.doi.org/10.1002/jcc.20495


 Krack, M. 
 THEORETICAL CHEMISTRY ACCOUNTS, 114 (1-3), 145-152 (2005). 
 Pseudopotentials for H to Kr optimized for gradient-corrected
 exchange-correlation functionals.
 http://dx.doi.org/10.1007/s00214-005-0655-y


 VandeVondele, J; Krack, M; Mohamed, F; Parrinello, M; Chassaing, T;
 Hutter, J. COMPUTER PHYSICS COMMUNICATIONS, 167 (2), 103-128 (2005). 
 QUICKSTEP: Fast and accurate density functional calculations using a
 mixed Gaussian and plane waves approach.
 http://dx.doi.org/10.1016/j.cpc.2004.12.014


 Frigo, M; Johnson, SG. 
 PROCEEDINGS OF THE IEEE, 93 (2), 216-231 (2005). 
 The design and implementation of FFTW3.
 http://dx.doi.org/10.1109/JPROC.2004.840301


 Kolafa, J. 
 JOURNAL OF COMPUTATIONAL CHEMISTRY, 25 (3), 335-342 (2004). 
 Time-reversible always stable predictor-corrector method for molecular dynamics of polarizable molecules.
 http://dx.doi.org/10.1002/jcc.10385


 Hartwigsen, C; Goedecker, S; Hutter, J. 
 PHYSICAL REVIEW B, 58 (7), 3641-3662 (1998). 
 Relativistic separable dual-space Gaussian pseudopotentials from H to Rn.
 http://dx.doi.org/10.1103/PhysRevB.58.3641


 Lippert, G; Hutter, J; Parrinello, M. 
 MOLECULAR PHYSICS, 92 (3), 477-487 (1997). 
 A hybrid Gaussian and plane wave density functional scheme.
 http://dx.doi.org/10.1080/002689797170220


 Perdew, JP; Burke, K; Ernzerhof, M. 
 PHYSICAL REVIEW LETTERS, 77 (18), 3865-3868 (1996). 
 Generalized gradient approximation made simple.
 http://dx.doi.org/10.1103/PhysRevLett.77.3865


 Goedecker, S; Teter, M; Hutter, J. 
 PHYSICAL REVIEW B, 54 (3), 1703-1710 (1996). 
 Separable dual-space Gaussian pseudopotentials.
 http://dx.doi.org/10.1103/PhysRevB.54.1703


 -------------------------------------------------------------------------------
 -                                                                             -
 -                                T I M I N G                                  -
 -                                                                             -
 -------------------------------------------------------------------------------
 SUBROUTINE                       CALLS  ASD         SELF TIME        TOTAL TIME
                                MAXIMUM       AVERAGE  MAXIMUM  AVERAGE  MAXIMUM
 CP2K                                 1  1.0    0.048    0.048 4249.644 4249.644
 geoopt_bfgs                          1  3.0    1.198    1.198 4248.856 4248.856
 cp_geo_opt                           1  2.0    0.000    0.000 4248.856 4248.856
 cp_eval_at                          20  4.0    0.002    0.002 4243.066 4243.066
 qs_energies_scf                     20  6.0    0.002    0.002 4057.088 4057.088
 qs_forces                           19  5.0    0.003    0.003 4040.208 4040.208
 scf_env_do_scf                      20  7.0    0.002    0.002 3810.550 3810.550
 scf_env_do_scf_inner_loop          182  8.0    0.017    0.017 3810.548 3810.548
 qs_ks_build_kohn_sham_matrix       201  9.7    0.031    0.031 1413.305 1413.305
 eigensolver                        182  9.0    0.002    0.002 1377.848 1377.848
 qs_ks_update_qs_env                182  9.0    0.001    0.001 1269.372 1269.372
 qs_rho_update_rho                  202  9.0    0.001    0.001 1127.981 1127.981
 calculate_rho_elec                 202 10.0 1091.448 1091.448 1127.980 1127.980
 sum_up_and_integrate               201 10.7    1.895    1.895 1088.381 1088.381
 integrate_v_rspace                 201 11.7 1066.773 1066.773 1086.485 1086.485
 cp_fm_syevd                        201  9.4    0.001    0.001 1064.705 1064.705
 cp_fm_syevd_base                   201 10.4 1064.704 1064.704 1064.704 1064.704
 qs_vxc_create                      201 10.7    0.003    0.003  298.167  298.167
 xc_vxc_pw_create                   201 11.7    5.539    5.539  298.163  298.163
 cp_fm_cholesky_restore             546 10.0  294.697  294.697  294.697  294.697
 xc_rho_set_and_dset_create         201 12.7    8.964    8.964  223.200  223.200
 init_scf_run                        20  7.0    0.003    0.003  203.687  203.687
 scf_env_initial_rho_setup           20  8.0    0.001    0.001  190.552  190.552
 wfi_extrapolate                     20  8.9    0.005    0.005  186.889  186.889
 fft_wrap_pw1pw2                   3604 12.6    0.040    0.040  182.829  182.829
 fft_wrap_pw1pw2_100               2395 13.5   15.516   15.516  178.123  178.123
 xc_functional_eval                 201 13.7    0.003    0.003  159.358  159.358
 pbe_lda_eval                       201 14.7  159.355  159.355  159.355  159.355
 qs_ks_update_qs_env_forces          19  6.0    0.000    0.000  145.619  145.619
 cp_dbcsr_multiply_d                286 11.2    0.000    0.000  131.225  131.225
 dbcsr_mm_cannon_multiply           286 13.2    0.142    0.142  131.188  131.188
 cannon_multiply_low                286 14.2    0.010    0.010  109.826  109.826
 cannon_multiply_low_multrec        286 15.2    0.001    0.001  106.541  106.541
 cannon_multiply_low_multrec_mas    286 16.2  106.528  106.528  106.528  106.528
 fft3d_s                           3605 14.6   90.119   90.119   90.134   90.134
 -------------------------------------------------------------------------------

  **** **** ******  **  PROGRAM ENDED AT                 2016-10-25 17:12:34.631
 ***** ** ***  *** **   PROGRAM RAN ON                                     nxn36
 **    ****   ******    PROGRAM RAN BY                                          
 ***** **    ** ** **   PROGRAM PROCESS ID                                 32125
  **** **  *******  **  PROGRAM STOPPED IN            /tmp/3824076.1.chemistry.q
