      -----------------------------------------------------------      
     |                   =====================                   |     
     |                           x T B                           |     
     |                   =====================                   |     
     |                         S. Grimme                         |     
     |          Mulliken Center for Theoretical Chemistry        |     
     |                    University of Bonn                     |     
      -----------------------------------------------------------      

   * xtb version 6.3.3 (5b13467) compiled by 'ehlert@majestix' on 2020-09-17

   xtb is free software: you can redistribute it and/or modify it under
   the terms of the GNU Lesser General Public License as published by
   the Free Software Foundation, either version 3 of the License, or
   (at your option) any later version.
   
   xtb is distributed in the hope that it will be useful,
   but WITHOUT ANY WARRANTY; without even the implied warranty of
   MERCHANTABILITY or FITNESS FOR A PARTICULAR PURPOSE.  See the
   GNU Lesser General Public License for more details.
   
   Cite this work as:
   * C. Bannwarth, E. Caldeweyher, S. Ehlert, A. Hansen, P. Pracht,
     J. Seibert, S. Spicher, S. Grimme, WIREs Comput. Mol. Sci., 2020,
     e01493. DOI: 10.1002/wcms.1493
   
   for GFN2-xTB:
   * S. Grimme, C. Bannwarth, P. Shushkov, J. Chem. Theory Comput., 2017,
     13, 1989-2009. DOI: 10.1021/acs.jctc.7b00118
   for GFN1-xTB:
   * C. Bannwarth, S. Ehlert and S. Grimme., J. Chem. Theory Comput., 2019,
     15, 1652-1671. DOI: 10.1021/acs.jctc.8b01176
   for GFN0-xTB:
   * P. Pracht, E. Caldeweyher, S. Ehlert, S. Grimme, ChemRxiv, 2019, preprint.
     DOI: 10.26434/chemrxiv.8326202.v1
   for GFN-FF:
   * S. Spicher and S. Grimme, Angew. Chem. Int. Ed., 2020, 59, 15665-15673.
     DOI: 10.1002/anie.202004239
   
   for DFT-D4:
   * E. Caldeweyher, C. Bannwarth and S. Grimme, J. Chem. Phys., 2017,
     147, 034112. DOI: 10.1063/1.4993215
   * E. Caldeweyher, S. Ehlert, A. Hansen, H. Neugebauer, S. Spicher,
     C. Bannwarth and S. Grimme, J. Chem. Phys., 2019, 150, 154122.
     DOI: 10.1063/1.5090222
   * E. Caldeweyher, J.-M. Mewes, S. Ehlert and S. Grimme, Phys. Chem. Chem. Phys.
     2020, 22, 8499-8512. DOI: 10.1039/D0CP00502A
   
   for sTDA-xTB:
   * S. Grimme and C. Bannwarth, J. Chem. Phys., 2016, 145, 054103.
     DOI: 10.1063/1.4959605
   
   in the mass-spec context:
   * V. Asgeirsson, C. Bauer and S. Grimme, Chem. Sci., 2017, 8, 4879.
     DOI: 10.1039/c7sc00601b
   * J. Koopman and S. Grimme, ACS Omega 2019, 4, 12, 15120-15133.
     DOI: 10.1021/acsomega.9b02011
   
   for metadynamics refer to:
   * S. Grimme, J. Chem. Theory Comput., 2019, 155, 2847-2862
     DOI: 10.1021/acs.jctc.9b00143
   
   with help from (in alphabetical order)
   C. Bannwarth, F. Bohle, G. Brandenburg, E. Caldeweyher, M. Checinski,
   S. Dohm, S. Ehlert, S. Ehrlich, F. März, H. Neugebauer, J. Pisarek,
   P. Pracht, P. Shushkov, and S. Spicher.
   
 * started run on 2022/02/23 at 16:08:10.282     

           -------------------------------------------------
          |                Calculation Setup                |
           -------------------------------------------------

          program call               : xtb --input xtb.input coord --grad
          hostname                   : login-01
          coordinate file            : coord
          omp threads                :                     1
          number of atoms            :                    15
          number of electrons        :                    36
          charge                     :                     0
          spin                       :                   0.0
          first test random number   :      0.50168039400262

   ID    Z sym.   atoms
    1    6 C      1-4, 6, 8, 10
    2    1 H      5, 7, 9, 11-15

           -------------------------------------------------
          |                 G F N 2 - x T B                 |
           -------------------------------------------------

        Reference                      10.1021/acs.jctc.8b01176
      * Hamiltonian:
        H0-scaling (s, p, d)           1.850000    2.230000    2.230000
        zeta-weighting                 0.500000
      * Dispersion:
        s8                             2.700000
        a1                             0.520000
        a2                             5.000000
        s9                             5.000000
      * Repulsion:
        kExp                           1.500000    1.000000
        rExp                           1.000000
      * Coulomb:
        alpha                          2.000000
        third order                    shell-resolved
        anisotropic                    true
        a3                             3.000000
        a5                             4.000000
        cn-shift                       1.200000
        cn-exp                         4.000000
        max-rad                        5.000000

q/qsh data taken from xtbrestart
CAMM data taken from xtbrestart

          ...................................................
          :                      SETUP                      :
          :.................................................:
          :  # basis functions                  36          :
          :  # atomic orbitals                  36          :
          :  # shells                           22          :
          :  # electrons                        36          :
          :  max. iterations                   250          :
          :  Hamiltonian                  GFN2-xTB          :
          :  restarted?                       true          :
          :  GBSA solvation                  false          :
          :  PC potential                     true          :
          :  -> # point charges                300          :
          :  -> sum of PC               -1.2966800     e    :
          :  electronic temp.          300.0000000     K    :
          :  accuracy                    1.0000000          :
          :  -> integral cutoff          0.2500000E+02      :
          :  -> integral neglect         0.1000000E-07      :
          :  -> SCF convergence          0.1000000E-05 Eh   :
          :  -> wf. convergence          0.1000000E-03 e    :
          :  Broyden damping             0.4000000          :
          ...................................................

 iter      E             dE          RMSdq      gap      omega  full diag
   1    -18.9718775 -0.189719E+02  0.215E-01    1.89       0.0  T
   2    -18.9716791  0.198376E-03  0.162E-01    1.89       1.0  T
   3    -18.9714570  0.222155E-03  0.211E-01    1.89       1.0  T
   4    -18.9719384 -0.481386E-03  0.351E-02    1.89       1.0  T
   5    -18.9719179  0.204250E-04  0.452E-02    1.89       1.0  T
   6    -18.9719550 -0.370425E-04  0.924E-03    1.89       2.8  T
   7    -18.9719556 -0.619617E-06  0.236E-03    1.89      10.9  T
   8    -18.9719556 -0.496228E-07  0.653E-04    1.89      39.5  T
   9    -18.9719557 -0.109456E-08  0.234E-04    1.89     110.2  T

   *** convergence criteria satisfied after 9 iterations ***

         #    Occupation            Energy/Eh            Energy/eV
      -------------------------------------------------------------
         1        2.0000           -0.5288111             -14.3897
       ...           ...                  ...                  ...
        12        2.0000           -0.3427033              -9.3254
        13        2.0000           -0.3292022              -8.9580
        14        2.0000           -0.3235441              -8.8041
        15        2.0000           -0.3187488              -8.6736
        16        2.0000           -0.3132858              -8.5249
        17        2.0000           -0.2577224              -7.0130
        18        2.0000           -0.2307543              -6.2791 (HOMO)
        19                         -0.1612589              -4.3881 (LUMO)
        20                         -0.1334459              -3.6312
        21                         -0.0062039              -0.1688
        22                          0.0592072               1.6111
        23                          0.1053037               2.8655
       ...                                ...                  ...
        36                          0.4727783              12.8650
      -------------------------------------------------------------
                  HL-Gap            0.0694954 Eh            1.8911 eV
             Fermi-level           -0.1960066 Eh           -5.3336 eV

 SCC (total)                   0 d,  0 h,  0 min,  0.011 sec
 SCC setup                      ...        0 min,  0.000 sec (  2.023%)
 Dispersion                     ...        0 min,  0.000 sec (  0.919%)
 classical contributions        ...        0 min,  0.000 sec (  0.274%)
 integral evaluation            ...        0 min,  0.003 sec ( 24.826%)
 iterations                     ...        0 min,  0.004 sec ( 36.002%)
 molecular gradient             ...        0 min,  0.004 sec ( 34.872%)
 printout                       ...        0 min,  0.000 sec (  0.904%)

         :::::::::::::::::::::::::::::::::::::::::::::::::::::
         ::                     SUMMARY                     ::
         :::::::::::::::::::::::::::::::::::::::::::::::::::::
         :: total energy             -18.808209716368 Eh    ::
         :: gradient norm              0.304038151770 Eh/a0 ::
         :: HOMO-LUMO gap              1.891065704052 eV    ::
         ::.................................................::
         :: SCC energy               -18.971955651008 Eh    ::
         :: -> isotropic ES            0.000775485200 Eh    ::
         :: -> anisotropic ES          0.006491313187 Eh    ::
         :: -> anisotropic XC          0.020856409469 Eh    ::
         :: -> dispersion             -0.010844374370 Eh    ::
         :: repulsion energy           0.163720383738 Eh    ::
         :: add. restraining           0.000000000000 Eh    ::
         :: total charge              -0.000000000000 e     ::
         :::::::::::::::::::::::::::::::::::::::::::::::::::::

           -------------------------------------------------
          |                Property Printout                |
           -------------------------------------------------

    * Orbital Energies and Occupations

         #    Occupation            Energy/Eh            Energy/eV
      -------------------------------------------------------------
         1        2.0000           -0.5288111             -14.3897
       ...           ...                  ...                  ...
         6        2.0000           -0.4255678             -11.5803
         7        2.0000           -0.4104477             -11.1689
         8        2.0000           -0.4035918             -10.9823
         9        2.0000           -0.3875697             -10.5463
        10        2.0000           -0.3604959              -9.8096
        11        2.0000           -0.3557677              -9.6809
        12        2.0000           -0.3427033              -9.3254
        13        2.0000           -0.3292022              -8.9580
        14        2.0000           -0.3235441              -8.8041
        15        2.0000           -0.3187488              -8.6736
        16        2.0000           -0.3132858              -8.5249
        17        2.0000           -0.2577224              -7.0130
        18        2.0000           -0.2307543              -6.2791 (HOMO)
        19                         -0.1612589              -4.3881 (LUMO)
        20                         -0.1334459              -3.6312
        21                         -0.0062039              -0.1688
        22                          0.0592072               1.6111
        23                          0.1053037               2.8655
        24                          0.1072843               2.9194
        25                          0.1124694               3.0604
        26                          0.1459356               3.9711
        27                          0.1935760               5.2675
        28                          0.2024792               5.5097
        29                          0.2150360               5.8514
       ...                                ...                  ...
        36                          0.4727783              12.8650
      -------------------------------------------------------------
                  HL-Gap            0.0694954 Eh            1.8911 eV
             Fermi-level           -0.1960066 Eh           -5.3336 eV

     #   Z          covCN         q      C6AA      α(0)
     1   6 C        3.787     0.022    20.221     6.405
     2   6 C        2.640    -0.043    29.063     8.819
     3   6 C        2.917    -0.046    29.152     8.854
     4   6 C        3.832    -0.041    21.288     6.565
     5   1 H        0.820     0.021     2.759     2.607
     6   6 C        2.883    -0.060    29.496     8.904
     7   1 H        0.650     0.020     3.067     2.815
     8   6 C        2.893    -0.064    29.583     8.917
     9   1 H        0.913     0.046     2.376     2.411
    10   6 C        3.895     0.009    20.379     6.417
    11   1 H        0.888     0.024     2.683     2.564
    12   1 H        0.918     0.021     2.725     2.582
    13   1 H        0.912     0.025     2.655     2.549
    14   1 H        0.920     0.034     2.533     2.489
    15   1 H        0.909     0.034     2.527     2.487

 Mol. C6AA /au·bohr⁶  :       2330.217836
 Mol. C8AA /au·bohr⁸  :      55141.040649
 Mol. α(0) /au        :         75.383222


Wiberg/Mayer (AO) data.
largest (>0.10) Wiberg bond orders for each atom

 ---------------------------------------------------------------------------
     #   Z sym  total        # sym  WBO       # sym  WBO       # sym  WBO
 ---------------------------------------------------------------------------
     1   6 C    3.978 --     3 C    1.008     2 C    0.990     4 C    0.960
                             5 H    0.951
     2   6 C    3.932 --     6 C    1.846     1 C    0.990     7 H    0.949
     3   6 C    3.959 --     8 C    1.849     1 C    1.008     9 H    0.967
     4   6 C    3.982 --    12 H    0.975    10 C    0.970    11 H    0.968
                             1 C    0.960
     5   1 H    1.000 --     1 C    0.951
     6   6 C    3.957 --     2 C    1.846    10 C    1.006    13 H    0.969
     7   1 H    1.000 --     2 C    0.949
     8   6 C    3.964 --     3 C    1.849    10 C    1.001    14 H    0.972
     9   1 H    0.998 --     3 C    0.967
    10   6 C    3.988 --     6 C    1.006     8 C    1.001     4 C    0.970
                            15 H    0.960
    11   1 H    0.999 --     4 C    0.968
    12   1 H    1.000 --     4 C    0.975
    13   1 H    0.999 --     6 C    0.969
    14   1 H    0.999 --     8 C    0.972
    15   1 H    0.999 --    10 C    0.960
 ---------------------------------------------------------------------------

Topologies differ in total number of bonds
Writing topology from bond orders to xtbtopo.mol

molecular dipole:
                 x           y           z       tot (Debye)
 q only:       -0.067      -0.153      -0.132
   full:       -0.032      -0.202      -0.207       0.740
molecular quadrupole (traceless):
                xx          xy          yy          xz          yz          zz
 q only:        0.124       0.254      -0.051      -0.501      -0.618      -0.073
  q+dip:       -0.110       1.483       0.133      -0.536      -2.909      -0.023
   full:        0.041       0.832       0.003      -0.452      -1.527      -0.044


           -------------------------------------------------
          | TOTAL ENERGY              -18.808209716368 Eh   |
          | GRADIENT NORM               0.304038151770 Eh/α |
          | HOMO-LUMO GAP               1.891065704052 eV   |
           -------------------------------------------------

------------------------------------------------------------------------
 * finished run on 2022/02/23 at 16:08:10.313     
------------------------------------------------------------------------
 total:
 * wall-time:     0 d,  0 h,  0 min,  0.032 sec
 *  cpu-time:     0 d,  0 h,  0 min,  0.023 sec
 * ratio c/w:     0.716 speedup
 SCF:
 * wall-time:     0 d,  0 h,  0 min,  0.012 sec
 *  cpu-time:     0 d,  0 h,  0 min,  0.012 sec
 * ratio c/w:     0.991 speedup

