 Entering Gaussian System, Link 0=g09
 Input=relax.com
 Output=relax.log
 Initial command:
 /share/apps/gaussian/g09_D01/g09/l1.exe "/tmp/405318.1.all.q/Gau-13348.inp" -scrdir="/tmp/405318.1.all.q/"
 Default is to use a total of   4 processors:
                                4 via shared-memory
                                1 via Linda
 Entering Link 1 = /share/apps/gaussian/g09_D01/g09/l1.exe PID=     13349.
  
 Copyright (c) 1988,1990,1992,1993,1995,1998,2003,2009,2013,
            Gaussian, Inc.  All Rights Reserved.
  
 This is part of the Gaussian(R) 09 program.  It is based on
 the Gaussian(R) 03 system (copyright 2003, Gaussian, Inc.),
 the Gaussian(R) 98 system (copyright 1998, Gaussian, Inc.),
 the Gaussian(R) 94 system (copyright 1995, Gaussian, Inc.),
 the Gaussian 92(TM) system (copyright 1992, Gaussian, Inc.),
 the Gaussian 90(TM) system (copyright 1990, Gaussian, Inc.),
 the Gaussian 88(TM) system (copyright 1988, Gaussian, Inc.),
 the Gaussian 86(TM) system (copyright 1986, Carnegie Mellon
 University), and the Gaussian 82(TM) system (copyright 1983,
 Carnegie Mellon University). Gaussian is a federally registered
 trademark of Gaussian, Inc.
  
 This software contains proprietary and confidential information,
 including trade secrets, belonging to Gaussian, Inc.
  
 This software is provided under written license and may be
 used, copied, transmitted, or stored only in accord with that
 written license.
  
 The following legend is applicable only to US Government
 contracts under FAR:
  
                    RESTRICTED RIGHTS LEGEND
  
 Use, reproduction and disclosure by the US Government is
 subject to restrictions as set forth in subparagraphs (a)
 and (c) of the Commercial Computer Software - Restricted
 Rights clause in FAR 52.227-19.
  
 Gaussian, Inc.
 340 Quinnipiac St., Bldg. 40, Wallingford CT 06492
  
  
 ---------------------------------------------------------------
 Warning -- This program may not be used in any manner that
 competes with the business of Gaussian, Inc. or will provide
 assistance to any competitor of Gaussian, Inc.  The licensee
 of this program is prohibited from giving any competitor of
 Gaussian, Inc. access to this program.  By using this program,
 the user acknowledges that Gaussian, Inc. is engaged in the
 business of creating and licensing software in the field of
 computational chemistry and represents and warrants to the
 licensee that it is not a competitor of Gaussian, Inc. and that
 it will not use this program in any manner prohibited above.
 ---------------------------------------------------------------
  

 Cite this work as:
 Gaussian 09, Revision D.01,
 M. J. Frisch, G. W. Trucks, H. B. Schlegel, G. E. Scuseria, 
 M. A. Robb, J. R. Cheeseman, G. Scalmani, V. Barone, B. Mennucci, 
 G. A. Petersson, H. Nakatsuji, M. Caricato, X. Li, H. P. Hratchian, 
 A. F. Izmaylov, J. Bloino, G. Zheng, J. L. Sonnenberg, M. Hada, 
 M. Ehara, K. Toyota, R. Fukuda, J. Hasegawa, M. Ishida, T. Nakajima, 
 Y. Honda, O. Kitao, H. Nakai, T. Vreven, J. A. Montgomery, Jr., 
 J. E. Peralta, F. Ogliaro, M. Bearpark, J. J. Heyd, E. Brothers, 
 K. N. Kudin, V. N. Staroverov, T. Keith, R. Kobayashi, J. Normand, 
 K. Raghavachari, A. Rendell, J. C. Burant, S. S. Iyengar, J. Tomasi, 
 M. Cossi, N. Rega, J. M. Millam, M. Klene, J. E. Knox, J. B. Cross, 
 V. Bakken, C. Adamo, J. Jaramillo, R. Gomperts, R. E. Stratmann, 
 O. Yazyev, A. J. Austin, R. Cammi, C. Pomelli, J. W. Ochterski, 
 R. L. Martin, K. Morokuma, V. G. Zakrzewski, G. A. Voth, 
 P. Salvador, J. J. Dannenberg, S. Dapprich, A. D. Daniels, 
 O. Farkas, J. B. Foresman, J. V. Ortiz, J. Cioslowski, 
 and D. J. Fox, Gaussian, Inc., Wallingford CT, 2013.
 
 ******************************************
 Gaussian 09:  ES64L-G09RevD.01 24-Apr-2013
                10-Sep-2018 
 ******************************************
 %chk=relax.chk
 %mem=28GB
 %nproc=4
 Will use up to    4 processors via shared memory.
 ------------------------------------
 #hf STO-3G Pop=ESP symmetry=none opt
 ------------------------------------
 1/18=20,19=15,38=1/1,3;
 2/9=110,12=2,15=3,17=6,18=5,40=1/2;
 3/6=3,11=9,16=1,25=1,30=1,71=1/1,2,3;
 4//1;
 5/5=2,38=5/2;
 6/7=2,8=2,9=2,10=2,15=8,28=1/1,2;
 7/30=1/1,2,3,16;
 1/18=20,19=15/3(2);
 2/9=110,15=3/2;
 99//99;
 2/9=110,15=3/2;
 3/6=3,11=9,16=1,25=1,30=1,71=1/1,2,3;
 4/5=5,16=3,69=1/1;
 5/5=2,38=5/2;
 7/30=1/1,2,3,16;
 1/18=20,19=15/3(-5);
 2/9=110,15=3/2;
 6/7=2,8=2,9=2,10=2,15=8,19=2,28=1/1,2;
 99/9=1/99;
 -----
 relax
 -----
 Symbolic Z-matrix:
 Charge =  0 Multiplicity = 1
 C                     8.94732   2.50329   1.60901 
 C                     8.52513   3.4693    0.72664 
 C                     8.04887   1.50851   2.05722 
 H                     9.97668   2.47257   1.96528 
 C                     7.19474   3.49259   0.28788 
 H                     9.21852   4.22288   0.35501 
 C                     8.48971   0.47814   2.91766 
 C                     6.68505   1.52995   1.61668 
 C                     6.26061   2.55777   0.7225 
 H                     6.90757   4.26991  -0.41539 
 C                     7.60952  -0.48916   3.33787 
 H                     9.53552   0.46043   3.22516 
 C                     5.78938   0.50894   2.05604 
 C                     4.86218   2.59269   0.28117 
 C                     6.27403  -0.47365   2.91256 
 H                     7.93656  -1.28217   4.0062 
 C                     4.3971    0.527     1.59398 
 C                     4.37665   3.57988  -0.57298 
 C                     3.96154   1.58227   0.73652 
 H                     5.6226   -1.26916   3.2636 
 C                     3.48323  -0.45587   1.96125 
 C                     3.04021   3.60249  -0.99703 
 H                     5.03845   4.36238  -0.93618 
 C                     2.59533   1.61393   0.30515 
 C                     2.14421  -0.41561   1.54812 
 H                     3.79685  -1.28453   2.59083 
 C                     2.15853   2.63932  -0.56485 
 H                     2.71636   4.38979  -1.6756 
 C                     1.70383   0.60665   0.7405 
 H                     1.46453  -1.20319   1.87091 
 H                     1.11792   2.64004  -0.8927 
 H                     0.66464   0.66046   0.4202 
 

 GradGradGradGradGradGradGradGradGradGradGradGradGradGradGradGradGradGrad
 Berny optimization.
 Initialization pass.
                           ----------------------------
                           !    Initial Parameters    !
                           ! (Angstroms and Degrees)  !
 --------------------------                            --------------------------
 ! Name  Definition              Value          Derivative Info.                !
 --------------------------------------------------------------------------------
 ! R1    R(1,2)                  1.3748         estimate D2E/DX2                !
 ! R2    R(1,3)                  1.4134         estimate D2E/DX2                !
 ! R3    R(1,4)                  1.0897         estimate D2E/DX2                !
 ! R4    R(2,5)                  1.4011         estimate D2E/DX2                !
 ! R5    R(2,6)                  1.0894         estimate D2E/DX2                !
 ! R6    R(3,7)                  1.4129         estimate D2E/DX2                !
 ! R7    R(3,8)                  1.4334         estimate D2E/DX2                !
 ! R8    R(5,9)                  1.3912         estimate D2E/DX2                !
 ! R9    R(5,10)                 1.0869         estimate D2E/DX2                !
 ! R10   R(7,11)                 1.3737         estimate D2E/DX2                !
 ! R11   R(7,12)                 1.0902         estimate D2E/DX2                !
 ! R12   R(8,9)                  1.4269         estimate D2E/DX2                !
 ! R13   R(8,13)                 1.4275         estimate D2E/DX2                !
 ! R14   R(9,14)                 1.4668         estimate D2E/DX2                !
 ! R15   R(11,15)                1.4017         estimate D2E/DX2                !
 ! R16   R(11,16)                1.0874         estimate D2E/DX2                !
 ! R17   R(13,15)                1.3907         estimate D2E/DX2                !
 ! R18   R(13,17)                1.4671         estimate D2E/DX2                !
 ! R19   R(14,18)                1.3928         estimate D2E/DX2                !
 ! R20   R(14,19)                1.4281         estimate D2E/DX2                !
 ! R21   R(15,20)                1.0865         estimate D2E/DX2                !
 ! R22   R(17,19)                1.4278         estimate D2E/DX2                !
 ! R23   R(17,21)                1.3914         estimate D2E/DX2                !
 ! R24   R(18,22)                1.4023         estimate D2E/DX2                !
 ! R25   R(18,23)                1.0873         estimate D2E/DX2                !
 ! R26   R(19,24)                1.433          estimate D2E/DX2                !
 ! R27   R(21,25)                1.4019         estimate D2E/DX2                !
 ! R28   R(21,26)                1.0869         estimate D2E/DX2                !
 ! R29   R(22,27)                1.3754         estimate D2E/DX2                !
 ! R30   R(22,28)                1.0887         estimate D2E/DX2                !
 ! R31   R(24,27)                1.4139         estimate D2E/DX2                !
 ! R32   R(24,29)                1.4138         estimate D2E/DX2                !
 ! R33   R(25,29)                1.3752         estimate D2E/DX2                !
 ! R34   R(25,30)                1.0892         estimate D2E/DX2                !
 ! R35   R(27,31)                1.091          estimate D2E/DX2                !
 ! R36   R(29,32)                1.0888         estimate D2E/DX2                !
 ! A1    A(2,1,3)              120.1906         estimate D2E/DX2                !
 ! A2    A(2,1,4)              121.3151         estimate D2E/DX2                !
 ! A3    A(3,1,4)              118.4859         estimate D2E/DX2                !
 ! A4    A(1,2,5)              120.2837         estimate D2E/DX2                !
 ! A5    A(1,2,6)              120.6341         estimate D2E/DX2                !
 ! A6    A(5,2,6)              119.0815         estimate D2E/DX2                !
 ! A7    A(1,3,7)              120.5338         estimate D2E/DX2                !
 ! A8    A(1,3,8)              119.7906         estimate D2E/DX2                !
 ! A9    A(7,3,8)              119.6658         estimate D2E/DX2                !
 ! A10   A(2,5,9)              121.9102         estimate D2E/DX2                !
 ! A11   A(2,5,10)             117.7372         estimate D2E/DX2                !
 ! A12   A(9,5,10)             120.3522         estimate D2E/DX2                !
 ! A13   A(3,7,11)             119.9922         estimate D2E/DX2                !
 ! A14   A(3,7,12)             118.875          estimate D2E/DX2                !
 ! A15   A(11,7,12)            121.1269         estimate D2E/DX2                !
 ! A16   A(3,8,9)              119.1038         estimate D2E/DX2                !
 ! A17   A(3,8,13)             119.4528         estimate D2E/DX2                !
 ! A18   A(9,8,13)             121.4284         estimate D2E/DX2                !
 ! A19   A(5,9,8)              118.6891         estimate D2E/DX2                !
 ! A20   A(5,9,14)             122.0162         estimate D2E/DX2                !
 ! A21   A(8,9,14)             119.2928         estimate D2E/DX2                !
 ! A22   A(7,11,15)            120.657          estimate D2E/DX2                !
 ! A23   A(7,11,16)            120.5849         estimate D2E/DX2                !
 ! A24   A(15,11,16)           118.7581         estimate D2E/DX2                !
 ! A25   A(8,13,15)            118.4414         estimate D2E/DX2                !
 ! A26   A(8,13,17)            119.3219         estimate D2E/DX2                !
 ! A27   A(15,13,17)           122.2367         estimate D2E/DX2                !
 ! A28   A(9,14,18)            122.2585         estimate D2E/DX2                !
 ! A29   A(9,14,19)            119.2399         estimate D2E/DX2                !
 ! A30   A(18,14,19)           118.5015         estimate D2E/DX2                !
 ! A31   A(11,15,13)           121.7859         estimate D2E/DX2                !
 ! A32   A(11,15,20)           117.7193         estimate D2E/DX2                !
 ! A33   A(13,15,20)           120.489          estimate D2E/DX2                !
 ! A34   A(13,17,19)           119.1937         estimate D2E/DX2                !
 ! A35   A(13,17,21)           122.1053         estimate D2E/DX2                !
 ! A36   A(19,17,21)           118.7008         estimate D2E/DX2                !
 ! A37   A(14,18,22)           121.9459         estimate D2E/DX2                !
 ! A38   A(14,18,23)           120.1833         estimate D2E/DX2                !
 ! A39   A(22,18,23)           117.8703         estimate D2E/DX2                !
 ! A40   A(14,19,17)           121.469          estimate D2E/DX2                !
 ! A41   A(14,19,24)           119.3167         estimate D2E/DX2                !
 ! A42   A(17,19,24)           119.2052         estimate D2E/DX2                !
 ! A43   A(17,21,25)           121.9557         estimate D2E/DX2                !
 ! A44   A(17,21,26)           120.1266         estimate D2E/DX2                !
 ! A45   A(25,21,26)           117.917          estimate D2E/DX2                !
 ! A46   A(18,22,27)           120.3055         estimate D2E/DX2                !
 ! A47   A(18,22,28)           118.9247         estimate D2E/DX2                !
 ! A48   A(27,22,28)           120.7691         estimate D2E/DX2                !
 ! A49   A(19,24,27)           119.7205         estimate D2E/DX2                !
 ! A50   A(19,24,29)           119.5199         estimate D2E/DX2                !
 ! A51   A(27,24,29)           120.7535         estimate D2E/DX2                !
 ! A52   A(21,25,29)           120.0189         estimate D2E/DX2                !
 ! A53   A(21,25,30)           119.2038         estimate D2E/DX2                !
 ! A54   A(29,25,30)           120.7768         estimate D2E/DX2                !
 ! A55   A(22,27,24)           120.2085         estimate D2E/DX2                !
 ! A56   A(22,27,31)           121.0983         estimate D2E/DX2                !
 ! A57   A(24,27,31)           118.6881         estimate D2E/DX2                !
 ! A58   A(24,29,25)           120.5643         estimate D2E/DX2                !
 ! A59   A(24,29,32)           118.4282         estimate D2E/DX2                !
 ! A60   A(25,29,32)           121.0075         estimate D2E/DX2                !
 ! D1    D(3,1,2,5)              1.3967         estimate D2E/DX2                !
 ! D2    D(3,1,2,6)           -178.2891         estimate D2E/DX2                !
 ! D3    D(4,1,2,5)           -179.6723         estimate D2E/DX2                !
 ! D4    D(4,1,2,6)              0.6419         estimate D2E/DX2                !
 ! D5    D(2,1,3,7)            177.2027         estimate D2E/DX2                !
 ! D6    D(2,1,3,8)             -1.6531         estimate D2E/DX2                !
 ! D7    D(4,1,3,7)             -1.7582         estimate D2E/DX2                !
 ! D8    D(4,1,3,8)            179.386          estimate D2E/DX2                !
 ! D9    D(1,2,5,9)              0.1983         estimate D2E/DX2                !
 ! D10   D(1,2,5,10)          -179.5498         estimate D2E/DX2                !
 ! D11   D(6,2,5,9)            179.889          estimate D2E/DX2                !
 ! D12   D(6,2,5,10)             0.1409         estimate D2E/DX2                !
 ! D13   D(1,3,7,11)          -179.4754         estimate D2E/DX2                !
 ! D14   D(1,3,7,12)            -0.3437         estimate D2E/DX2                !
 ! D15   D(8,3,7,11)            -0.6182         estimate D2E/DX2                !
 ! D16   D(8,3,7,12)           178.5135         estimate D2E/DX2                !
 ! D17   D(1,3,8,9)              0.3475         estimate D2E/DX2                !
 ! D18   D(1,3,8,13)           178.9566         estimate D2E/DX2                !
 ! D19   D(7,3,8,9)           -178.5183         estimate D2E/DX2                !
 ! D20   D(7,3,8,13)             0.0908         estimate D2E/DX2                !
 ! D21   D(2,5,9,8)             -1.4895         estimate D2E/DX2                !
 ! D22   D(2,5,9,14)           179.0124         estimate D2E/DX2                !
 ! D23   D(10,5,9,8)           178.2522         estimate D2E/DX2                !
 ! D24   D(10,5,9,14)           -1.246          estimate D2E/DX2                !
 ! D25   D(3,7,11,15)            0.5417         estimate D2E/DX2                !
 ! D26   D(3,7,11,16)         -179.5254         estimate D2E/DX2                !
 ! D27   D(12,7,11,15)        -178.57           estimate D2E/DX2                !
 ! D28   D(12,7,11,16)           1.3629         estimate D2E/DX2                !
 ! D29   D(3,8,9,5)              1.1862         estimate D2E/DX2                !
 ! D30   D(3,8,9,14)          -179.3017         estimate D2E/DX2                !
 ! D31   D(13,8,9,5)          -177.3944         estimate D2E/DX2                !
 ! D32   D(13,8,9,14)            2.1176         estimate D2E/DX2                !
 ! D33   D(3,8,13,15)            0.5051         estimate D2E/DX2                !
 ! D34   D(3,8,13,17)         -179.4676         estimate D2E/DX2                !
 ! D35   D(9,8,13,15)          179.0809         estimate D2E/DX2                !
 ! D36   D(9,8,13,17)           -0.8918         estimate D2E/DX2                !
 ! D37   D(5,9,14,18)           -1.5586         estimate D2E/DX2                !
 ! D38   D(5,9,14,19)          178.3349         estimate D2E/DX2                !
 ! D39   D(8,9,14,18)          178.9462         estimate D2E/DX2                !
 ! D40   D(8,9,14,19)           -1.1603         estimate D2E/DX2                !
 ! D41   D(7,11,15,13)           0.0789         estimate D2E/DX2                !
 ! D42   D(7,11,15,20)         179.2011         estimate D2E/DX2                !
 ! D43   D(16,11,15,13)       -179.8552         estimate D2E/DX2                !
 ! D44   D(16,11,15,20)         -0.733          estimate D2E/DX2                !
 ! D45   D(8,13,15,11)          -0.6008         estimate D2E/DX2                !
 ! D46   D(8,13,15,20)        -179.6991         estimate D2E/DX2                !
 ! D47   D(17,13,15,11)        179.371          estimate D2E/DX2                !
 ! D48   D(17,13,15,20)          0.2728         estimate D2E/DX2                !
 ! D49   D(8,13,17,19)          -1.2966         estimate D2E/DX2                !
 ! D50   D(8,13,17,21)         178.5067         estimate D2E/DX2                !
 ! D51   D(15,13,17,19)        178.7318         estimate D2E/DX2                !
 ! D52   D(15,13,17,21)         -1.465          estimate D2E/DX2                !
 ! D53   D(9,14,18,22)         179.6189         estimate D2E/DX2                !
 ! D54   D(9,14,18,23)          -0.1122         estimate D2E/DX2                !
 ! D55   D(19,14,18,22)         -0.2753         estimate D2E/DX2                !
 ! D56   D(19,14,18,23)        179.9936         estimate D2E/DX2                !
 ! D57   D(9,14,19,17)          -1.0335         estimate D2E/DX2                !
 ! D58   D(9,14,19,24)        -179.9283         estimate D2E/DX2                !
 ! D59   D(18,14,19,17)        178.864          estimate D2E/DX2                !
 ! D60   D(18,14,19,24)         -0.0308         estimate D2E/DX2                !
 ! D61   D(13,17,19,14)          2.2571         estimate D2E/DX2                !
 ! D62   D(13,17,19,24)       -178.847          estimate D2E/DX2                !
 ! D63   D(21,17,19,14)       -177.5529         estimate D2E/DX2                !
 ! D64   D(21,17,19,24)          1.343          estimate D2E/DX2                !
 ! D65   D(13,17,21,25)        178.1989         estimate D2E/DX2                !
 ! D66   D(13,17,21,26)         -1.4829         estimate D2E/DX2                !
 ! D67   D(19,17,21,25)         -1.9969         estimate D2E/DX2                !
 ! D68   D(19,17,21,26)        178.3213         estimate D2E/DX2                !
 ! D69   D(14,18,22,27)          0.475          estimate D2E/DX2                !
 ! D70   D(14,18,22,28)       -179.2068         estimate D2E/DX2                !
 ! D71   D(23,18,22,27)       -179.788          estimate D2E/DX2                !
 ! D72   D(23,18,22,28)          0.5302         estimate D2E/DX2                !
 ! D73   D(14,19,24,27)          0.1422         estimate D2E/DX2                !
 ! D74   D(14,19,24,29)        179.2472         estimate D2E/DX2                !
 ! D75   D(17,19,24,27)       -178.7779         estimate D2E/DX2                !
 ! D76   D(17,19,24,29)          0.3272         estimate D2E/DX2                !
 ! D77   D(17,21,25,29)          0.9186         estimate D2E/DX2                !
 ! D78   D(17,21,25,30)       -179.3457         estimate D2E/DX2                !
 ! D79   D(26,21,25,29)       -179.3928         estimate D2E/DX2                !
 ! D80   D(26,21,25,30)          0.3428         estimate D2E/DX2                !
 ! D81   D(18,22,27,24)         -0.3524         estimate D2E/DX2                !
 ! D82   D(18,22,27,31)       -179.5208         estimate D2E/DX2                !
 ! D83   D(28,22,27,24)        179.3234         estimate D2E/DX2                !
 ! D84   D(28,22,27,31)          0.155          estimate D2E/DX2                !
 ! D85   D(19,24,27,22)          0.0497         estimate D2E/DX2                !
 ! D86   D(19,24,27,31)        179.238          estimate D2E/DX2                !
 ! D87   D(29,24,27,22)       -179.0441         estimate D2E/DX2                !
 ! D88   D(29,24,27,31)          0.1442         estimate D2E/DX2                !
 ! D89   D(19,24,29,25)         -1.4342         estimate D2E/DX2                !
 ! D90   D(19,24,29,32)        178.6392         estimate D2E/DX2                !
 ! D91   D(27,24,29,25)        177.6614         estimate D2E/DX2                !
 ! D92   D(27,24,29,32)         -2.2652         estimate D2E/DX2                !
 ! D93   D(21,25,29,24)          0.8379         estimate D2E/DX2                !
 ! D94   D(21,25,29,32)       -179.2374         estimate D2E/DX2                !
 ! D95   D(30,25,29,24)       -178.8935         estimate D2E/DX2                !
 ! D96   D(30,25,29,32)          1.0312         estimate D2E/DX2                !
 --------------------------------------------------------------------------------
 Trust Radius=3.00D-01 FncErr=1.00D-07 GrdErr=1.00D-07
 Number of steps in this run=    192 maximum allowed number of steps=    192.
 GradGradGradGradGradGradGradGradGradGradGradGradGradGradGradGradGradGrad

                          Input orientation:                          
 ---------------------------------------------------------------------
 Center     Atomic      Atomic             Coordinates (Angstroms)
 Number     Number       Type             X           Y           Z
 ---------------------------------------------------------------------
      1          6           0        8.947319    2.503291    1.609009
      2          6           0        8.525132    3.469300    0.726636
      3          6           0        8.048868    1.508514    2.057225
      4          1           0        9.976679    2.472568    1.965282
      5          6           0        7.194744    3.492590    0.287876
      6          1           0        9.218517    4.222881    0.355012
      7          6           0        8.489705    0.478143    2.917662
      8          6           0        6.685054    1.529948    1.616675
      9          6           0        6.260610    2.557768    0.722497
     10          1           0        6.907569    4.269910   -0.415385
     11          6           0        7.609515   -0.489156    3.337869
     12          1           0        9.535523    0.460432    3.225160
     13          6           0        5.789379    0.508935    2.056037
     14          6           0        4.862179    2.592695    0.281170
     15          6           0        6.274032   -0.473651    2.912564
     16          1           0        7.936565   -1.282166    4.006204
     17          6           0        4.397105    0.527001    1.593980
     18          6           0        4.376648    3.579878   -0.572980
     19          6           0        3.961542    1.582272    0.736521
     20          1           0        5.622604   -1.269159    3.263596
     21          6           0        3.483230   -0.455868    1.961251
     22          6           0        3.040212    3.602490   -0.997030
     23          1           0        5.038453    4.362383   -0.936180
     24          6           0        2.595334    1.613926    0.305152
     25          6           0        2.144212   -0.415609    1.548116
     26          1           0        3.796846   -1.284526    2.590825
     27          6           0        2.158527    2.639316   -0.564854
     28          1           0        2.716362    4.389786   -1.675598
     29          6           0        1.703829    0.606654    0.740504
     30          1           0        1.464530   -1.203186    1.870910
     31          1           0        1.117923    2.640042   -0.892703
     32          1           0        0.664637    0.660458    0.420203
 ---------------------------------------------------------------------
                    Distance matrix (angstroms):
                    1          2          3          4          5
     1  C    0.000000
     2  C    1.374772   0.000000
     3  C    1.413398   2.417018   0.000000
     4  H    1.089705   2.152837   2.157385   0.000000
     5  C    2.407410   1.401066   2.792254   3.404893   0.000000
     6  H    2.145471   1.089390   3.410776   2.496272   2.152554
     7  C    2.454222   3.707947   1.412924   2.663804   4.204710
     8  C    2.462783   2.817648   1.433364   3.441635   2.424346
     9  C    2.829713   2.441100   2.465826   3.919304   1.391184
    10  H    3.373380   2.135813   3.878359   4.279889   1.086863
    11  C    3.705862   4.829727   2.413248   4.032278   5.032772
    12  H    2.670431   4.039406   2.161641   2.414664   4.827097
    13  C    3.761632   4.244457   2.470719   4.625751   3.742144
    14  C    4.296454   3.792638   3.805891   5.385979   2.500143
    15  C    4.208076   5.039107   2.794750   4.825676   4.844354
    16  H    4.593240   5.803310   3.405734   4.735552   6.097094
    17  C    4.960887   5.142958   3.809637   5.920705   4.281052
    18  C    5.177948   4.348695   4.969278   6.247340   2.947941
    19  C    5.144656   4.938353   4.296037   6.203576   3.782088
    20  H    5.293653   6.108505   3.880407   5.885925   5.831019
    21  C    6.223903   6.507841   4.971223   7.123246   5.671494
    22  C    6.549320   5.750923   6.228952   7.626702   4.350080
    23  H    5.021299   3.964781   5.115432   6.031249   2.627631
    24  C    6.545130   6.227565   5.729040   7.614299   4.968325
    25  C    7.403104   7.515550   6.231084   8.358417   6.509232
    26  H    6.468299   6.959221   5.115222   7.259297   6.298422
    27  C    7.129648   6.549082   6.546001   8.219057   5.178678
    28  H    7.291936   6.352939   7.118379   8.345294   4.971529
    29  C    7.537883   7.397642   6.542677   8.568650   6.219618
    30  H    8.354561   8.543629   7.123309   9.272365   7.575728
    31  H    8.220505   7.627363   7.617114   9.309870   6.248869
    32  H    8.568087   8.352896   7.610907   9.611719   7.119043
                    6          7          8          9         10
     6  H    0.000000
     7  C    4.595803   0.000000
     8  C    3.906676   2.460818   0.000000
     9  C    3.414214   3.756655   1.426927   0.000000
    10  H    2.436433   5.290544   3.418504   2.155171   0.000000
    11  C    5.804276   1.373672   2.809612   4.235972   6.101504
    12  H    4.742812   1.090231   3.443292   4.624629   5.888279
    13  C    5.333467   2.834626   1.427494   2.489599   4.637155
    14  C    4.651950   4.957960   2.497174   1.466833   2.735299
    15  C    6.104791   2.411461   2.421296   3.739796   5.829064
    16  H    6.729052   2.142329   3.896680   5.323218   7.171808
    17  C    6.200047   4.301615   2.498225   2.890700   4.934506
    18  C    4.971752   6.222747   3.784910   2.504453   2.628030
    19  C    5.895265   5.145944   2.862678   2.497499   4.150826
    20  H    7.180039   3.375352   3.417038   4.637845   6.772542
    21  C    7.573917   5.181881   3.783368   4.281396   6.301387
    22  C    6.354869   7.401576   4.940826   3.797260   3.967393
    23  H    4.377165   6.469201   4.153439   2.738889   1.942517
    24  C    7.118686   6.546665   4.295690   3.807790   5.115544
    25  C    8.543119   6.552841   4.940561   5.144643   6.964122
    26  H    8.045179   5.023619   4.148732   4.931937   7.040288
    27  C    7.293647   7.542042   5.145796   4.300117   5.023403
    28  H    6.813902   8.350478   5.896461   4.654981   4.378210
    29  C    8.348427   7.127738   5.141279   4.956957   6.467954
    30  H    9.584595   7.299016   5.898180   6.202097   8.050379
    31  H    8.347562   8.575305   6.206628   5.390999   6.033598
    32  H    9.266281   8.215974   6.199434   5.916594   7.259515
                   11         12         13         14         15
    11  C    0.000000
    12  H    2.150332   0.000000
    13  C    2.439708   3.924640   0.000000
    14  C    5.137029   5.920622   2.889967   0.000000
    15  C    1.401656   3.406986   1.390684   4.280192   0.000000
    16  H    1.087427   2.490651   3.409047   6.192114   2.147967
    17  C    3.793851   5.391523   1.467055   2.491356   2.502563
    18  C    6.504092   7.125363   4.282316   1.392782   5.672758
    19  C    4.936145   6.206538   2.496831   1.428092   3.782802
    20  H    2.135822   4.278305   2.155836   4.938322   1.086469
    21  C    4.349990   6.250386   2.501630   3.744050   2.948540
    22  C    7.510755   8.359933   5.142881   2.443981   6.508260
    23  H    6.958109   7.263994   4.936225   2.155182   6.302913
    24  C    6.225941   7.617297   3.806380   2.469241   4.968842
    25  C    5.751362   7.629640   3.794734   4.247633   4.349770
    26  H    3.965745   6.031556   2.733622   4.637055   2.626306
    27  C    7.398098   8.575069   4.958899   2.833313   6.222570
    28  H    8.537088   9.271365   6.199156   3.415115   7.573722
    29  C    6.544023   8.217684   4.293238   3.759059   5.174134
    30  H    6.357881   8.351200   4.655099   5.336666   4.974794
    31  H    8.356458   9.620992   5.921080   3.924242   7.124647
    32  H    7.620086   9.305934   5.381625   4.623011   6.242065
                   16         17         18         19         20
    16  H    0.000000
    17  C    4.649698   0.000000
    18  C    7.568448   3.743821   0.000000
    19  C    5.890385   1.427777   2.424363   0.000000
    20  H    2.430237   2.741470   6.307526   4.156428   0.000000
    21  C    4.969587   1.391433   4.848481   2.425440   2.633337
    22  C    8.536187   4.244187   1.402281   2.816972   6.968116
    23  H    8.042832   4.639309   1.087297   3.418579   7.049370
    24  C    7.114343   2.467562   2.794488   1.433041   5.121419
    25  C    6.351730   2.442569   5.044476   2.820089   3.971225
    26  H    4.374994   2.153054   5.831660   3.418201   1.945829
    27  C    8.346156   3.759477   2.409312   2.462069   6.475572
    28  H    9.576243   5.332555   2.151341   3.905243   8.053914
    29  C    7.285564   2.826394   4.208237   2.459495   5.024088
    30  H    6.815640   3.416172   6.109888   3.909051   4.385602
    31  H    9.266978   4.626183   3.406582   3.443750   7.269720
    32  H    8.337513   3.914956   4.825811   3.437933   6.032391
                   21         22         23         24         25
    21  C    0.000000
    22  C    5.041623   0.000000
    23  H    5.833470   2.138716   0.000000
    24  C    2.795545   2.418260   3.881205   0.000000
    25  C    1.401881   4.840011   6.113719   2.422289   0.000000
    26  H    1.086919   6.109675   6.772661   3.881875   2.138564
    27  C    4.209063   1.375445   3.376510   1.413908   3.714487
    28  H    6.106973   1.088654   2.437129   3.412245   5.814766
    29  C    2.405295   3.712139   5.294949   1.413828   1.375208
    30  H    2.154483   5.813981   7.185279   3.415616   1.089239
    31  H    4.829533   2.152298   4.282395   2.161137   4.043250
    32  H    3.400806   4.038249   5.888488   2.156369   2.149244
                   26         27         28         29         30
    26  H    0.000000
    27  C    5.295180   0.000000
    28  H    7.181060   2.146876   0.000000
    29  C    3.373569   2.458134   4.601615   0.000000
    30  H    2.442251   4.602108   6.739892   2.147231   0.000000
    31  H    5.891844   1.091028   2.495904   2.673073   4.746377
    32  H    4.278469   2.667944   4.744454   1.088764   2.493501
                   31         32
    31  H    0.000000
    32  H    2.418252   0.000000
 Symmetry turned off by external request.
 Stoichiometry    C20H12
 Rotational constants (GHZ):      0.6261809      0.3322768      0.2171129
 Standard basis: STO-3G (5D, 7F)
   112 basis functions,   336 primitive gaussians,   112 cartesian basis functions
    66 alpha electrons       66 beta electrons
       nuclear repulsion energy      1369.2754862136 Hartrees.
 NAtoms=   32 NActive=   32 NUniq=   32 SFac= 1.00D+00 NAtFMM=   60 NAOKFM=F Big=F
 Integral buffers will be    131072 words long.
 Raffenetti 1 integral format.
 Two-electron integral symmetry is turned off.
 One-electron integrals computed using PRISM.
 NBasis=   112 RedAO= T EigKep=  1.70D-01  NBF=   112
 NBsUse=   112 1.00D-06 EigRej= -1.00D+00 NBFU=   112
 ExpMin= 1.69D-01 ExpMax= 7.16D+01 ExpMxC= 7.16D+01 IAcc=1 IRadAn=         1 AccDes= 0.00D+00
 Harris functional with IExCor=  205 and IRadAn=       1 diagonalized for initial guess.
 HarFok:  IExCor=  205 AccDes= 0.00D+00 IRadAn=         1 IDoV= 1 UseB2=F ITyADJ=14
 ICtDFT=  3500011 ScaDFX=  1.000000  1.000000  1.000000  1.000000
 FoFCou: FMM=F IPFlag=           0 FMFlag=      100000 FMFlg1=           0
         NFxFlg=           0 DoJE=T BraDBF=F KetDBF=T FulRan=T
         wScrn=  0.000000 ICntrl=     500 IOpCl=  0 I1Cent=   200000004 NGrid=           0
         NMat0=    1 NMatS0=      1 NMatT0=    0 NMatD0=    1 NMtDS0=    0 NMtDT0=    0
 Symmetry not used in FoFCou.
 Keep R1 ints in memory in canonical form, NReq=20996398.
 Requested convergence on RMS density matrix=1.00D-08 within 128 cycles.
 Requested convergence on MAX density matrix=1.00D-06.
 Requested convergence on             energy=1.00D-06.
 No special actions if energy rises.
 SCF Done:  E(RHF) =  -755.105169212     A.U. after   13 cycles
            NFock= 13  Conv=0.50D-08     -V/T= 2.0090

 **********************************************************************

            Population analysis using the SCF density.

 **********************************************************************

 Alpha  occ. eigenvalues --  -11.04090 -11.04077 -11.04063 -11.04056 -11.03947
 Alpha  occ. eigenvalues --  -11.03940 -11.03898 -11.03893 -11.03011 -11.03003
 Alpha  occ. eigenvalues --  -11.02993 -11.02959 -11.02898 -11.02872 -11.02863
 Alpha  occ. eigenvalues --  -11.02858 -11.02778 -11.02768 -11.02753 -11.02752
 Alpha  occ. eigenvalues --   -1.13828  -1.10510  -1.06836  -1.04039  -1.02971
 Alpha  occ. eigenvalues --   -0.95823  -0.95670  -0.95334  -0.94096  -0.88513
 Alpha  occ. eigenvalues --   -0.81805  -0.80162  -0.78750  -0.77371  -0.75190
 Alpha  occ. eigenvalues --   -0.69186  -0.67308  -0.66622  -0.63693  -0.62690
 Alpha  occ. eigenvalues --   -0.60852  -0.59624  -0.57128  -0.56845  -0.53503
 Alpha  occ. eigenvalues --   -0.52421  -0.52309  -0.51784  -0.51667  -0.50260
 Alpha  occ. eigenvalues --   -0.49373  -0.47272  -0.47005  -0.46521  -0.44731
 Alpha  occ. eigenvalues --   -0.43454  -0.42364  -0.39316  -0.38793  -0.38435
 Alpha  occ. eigenvalues --   -0.37291  -0.28271  -0.27521  -0.26452  -0.26355
 Alpha  occ. eigenvalues --   -0.17050
 Alpha virt. eigenvalues --    0.14359   0.24767   0.25273   0.26005   0.26617
 Alpha virt. eigenvalues --    0.38290   0.39786   0.45651   0.52647   0.56250
 Alpha virt. eigenvalues --    0.59339   0.59669   0.60033   0.60375   0.60640
 Alpha virt. eigenvalues --    0.63109   0.64417   0.67282   0.68461   0.69904
 Alpha virt. eigenvalues --    0.70523   0.71757   0.72359   0.73461   0.75555
 Alpha virt. eigenvalues --    0.75686   0.78879   0.79448   0.82484   0.85083
 Alpha virt. eigenvalues --    0.85470   0.86709   0.89645   0.90019   0.90234
 Alpha virt. eigenvalues --    0.91853   0.98219   1.00192   1.00747   1.01181
 Alpha virt. eigenvalues --    1.06335   1.08121   1.12001   1.14955   1.19910
 Alpha virt. eigenvalues --    1.20045
          Condensed to atoms (all electrons):
               1          2          3          4          5          6
     1  C    4.786069   0.532447   0.474472   0.393247  -0.031256  -0.025425
     2  C    0.532447   4.771066  -0.030621  -0.024871   0.484915   0.393891
     3  C    0.474472  -0.030621   4.756949  -0.025734  -0.010501   0.001409
     4  H    0.393247  -0.024871  -0.025734   0.600472   0.001409  -0.003638
     5  C   -0.031256   0.484915  -0.010501   0.001409   4.788246  -0.025737
     6  H   -0.025425   0.393891   0.001409  -0.003638  -0.025737   0.599675
     7  C   -0.031928   0.000898   0.474317  -0.004090   0.000029  -0.000018
     8  C   -0.027933  -0.009447   0.479755   0.001217  -0.030796   0.000020
     9  C   -0.009641  -0.028060  -0.027893   0.000020   0.523982   0.001308
    10  H    0.001452  -0.027106   0.000036  -0.000033   0.394426  -0.004027
    11  C    0.000906  -0.000011  -0.030954   0.000029   0.000000   0.000000
    12  H   -0.004019   0.000028  -0.025419   0.000541  -0.000001  -0.000001
    13  C    0.000850   0.000025  -0.027473  -0.000017   0.000780   0.000001
    14  C    0.000014   0.000814   0.000748   0.000001  -0.026935  -0.000015
    15  C    0.000028   0.000000  -0.010418  -0.000001  -0.000009   0.000000
    16  H   -0.000019   0.000000   0.001429  -0.000002   0.000000   0.000000
    17  C   -0.000006   0.000000   0.000738   0.000000   0.000015   0.000000
    18  C    0.000000   0.000032  -0.000006   0.000000  -0.006199   0.000000
    19  C    0.000000  -0.000007   0.000012   0.000000   0.000709   0.000000
    20  H    0.000001   0.000000   0.000035   0.000000   0.000000   0.000000
    21  C    0.000000   0.000000  -0.000006   0.000000   0.000000   0.000000
    22  C    0.000000   0.000000   0.000000   0.000000   0.000031   0.000000
    23  H   -0.000001   0.000005  -0.000001   0.000000  -0.002251   0.000004
    24  C    0.000000   0.000000   0.000000   0.000000  -0.000006   0.000000
    25  C    0.000000   0.000000   0.000000   0.000000   0.000000   0.000000
    26  H    0.000000   0.000000  -0.000001   0.000000   0.000000   0.000000
    27  C    0.000000   0.000000   0.000000   0.000000   0.000000   0.000000
    28  H    0.000000   0.000000   0.000000   0.000000   0.000000   0.000000
    29  C    0.000000   0.000000   0.000000   0.000000   0.000000   0.000000
    30  H    0.000000   0.000000   0.000000   0.000000   0.000000   0.000000
    31  H    0.000000   0.000000   0.000000   0.000000   0.000000   0.000000
    32  H    0.000000   0.000000   0.000000   0.000000   0.000000   0.000000
               7          8          9         10         11         12
     1  C   -0.031928  -0.027933  -0.009641   0.001452   0.000906  -0.004019
     2  C    0.000898  -0.009447  -0.028060  -0.027106  -0.000011   0.000028
     3  C    0.474317   0.479755  -0.027893   0.000036  -0.030954  -0.025419
     4  H   -0.004090   0.001217   0.000020  -0.000033   0.000029   0.000541
     5  C    0.000029  -0.030796   0.523982   0.394426   0.000000  -0.000001
     6  H   -0.000018   0.000020   0.001308  -0.004027   0.000000  -0.000001
     7  C    4.785572  -0.028105   0.000863   0.000001   0.533109   0.393224
     8  C   -0.028105   4.774296   0.468737   0.001336  -0.009702   0.001213
     9  C    0.000863   0.468737   4.766577  -0.024952   0.000027  -0.000017
    10  H    0.000001   0.001336  -0.024952   0.604517   0.000000   0.000000
    11  C    0.533109  -0.009702   0.000027   0.000000   4.771498  -0.025011
    12  H    0.393224   0.001213  -0.000017   0.000000  -0.025011   0.600148
    13  C   -0.009477   0.468491  -0.027547  -0.000018  -0.028191   0.000018
    14  C   -0.000006  -0.027094   0.418334  -0.003427   0.000000   0.000000
    15  C   -0.030838  -0.031067   0.000787   0.000000   0.484559   0.001403
    16  H   -0.025580   0.000023   0.000001   0.000000   0.394259  -0.003699
    17  C    0.000014  -0.027015  -0.005902   0.000000   0.000812   0.000001
    18  C    0.000000   0.000702  -0.026614  -0.002258   0.000000   0.000000
    19  C    0.000000  -0.006622  -0.027116   0.000015  -0.000007   0.000000
    20  H    0.001439   0.001344  -0.000018   0.000000  -0.027080  -0.000033
    21  C    0.000000   0.000705   0.000015   0.000000   0.000031   0.000000
    22  C    0.000000  -0.000006   0.000800   0.000005   0.000000   0.000000
    23  H    0.000000   0.000014  -0.003375  -0.001544   0.000000   0.000000
    24  C    0.000000   0.000012   0.000743  -0.000001   0.000000   0.000000
    25  C    0.000000  -0.000006   0.000000   0.000000   0.000000   0.000000
    26  H   -0.000001   0.000015   0.000000   0.000000   0.000005   0.000000
    27  C    0.000000   0.000000   0.000014  -0.000001   0.000000   0.000000
    28  H    0.000000   0.000000  -0.000015   0.000004   0.000000   0.000000
    29  C    0.000000   0.000000  -0.000006   0.000000   0.000000   0.000000
    30  H    0.000000   0.000000   0.000000   0.000000   0.000000   0.000000
    31  H    0.000000   0.000000   0.000001   0.000000   0.000000   0.000000
    32  H    0.000000   0.000000   0.000000   0.000000   0.000000   0.000000
              13         14         15         16         17         18
     1  C    0.000850   0.000014   0.000028  -0.000019  -0.000006   0.000000
     2  C    0.000025   0.000814   0.000000   0.000000   0.000000   0.000032
     3  C   -0.027473   0.000748  -0.010418   0.001429   0.000738  -0.000006
     4  H   -0.000017   0.000001  -0.000001  -0.000002   0.000000   0.000000
     5  C    0.000780  -0.026935  -0.000009   0.000000   0.000015  -0.006199
     6  H    0.000001  -0.000015   0.000000   0.000000   0.000000   0.000000
     7  C   -0.009477  -0.000006  -0.030838  -0.025580   0.000014   0.000000
     8  C    0.468491  -0.027094  -0.031067   0.000023  -0.027015   0.000702
     9  C   -0.027547   0.418334   0.000787   0.000001  -0.005902  -0.026614
    10  H   -0.000018  -0.003427   0.000000   0.000000   0.000000  -0.002258
    11  C   -0.028191   0.000000   0.484559   0.394259   0.000812   0.000000
    12  H    0.000018   0.000000   0.001403  -0.003699   0.000001   0.000000
    13  C    4.766295  -0.005921   0.524220   0.001324   0.418274   0.000015
    14  C   -0.005921   4.767308   0.000015   0.000000  -0.027418   0.523486
    15  C    0.524220   0.000015   4.788220  -0.026054  -0.026741   0.000000
    16  H    0.001324   0.000000  -0.026054   0.600065  -0.000015   0.000000
    17  C    0.418274  -0.027418  -0.026741  -0.000015   4.767044   0.000778
    18  C    0.000015   0.523486   0.000000   0.000000   0.000778   4.788613
    19  C   -0.027159   0.468275   0.000707   0.000000   0.468332  -0.030860
    20  H   -0.024909   0.000000   0.394533  -0.004086  -0.003360   0.000000
    21  C   -0.026813   0.000776  -0.006173   0.000000   0.524126  -0.000008
    22  C    0.000000  -0.027882   0.000000   0.000000   0.000026   0.484524
    23  H    0.000000  -0.025043   0.000000   0.000000  -0.000018   0.394208
    24  C    0.000746  -0.027651  -0.000006   0.000000  -0.027768  -0.010413
    25  C    0.000807   0.000025   0.000031   0.000000  -0.027948   0.000000
    26  H   -0.003443  -0.000018  -0.002234   0.000004  -0.025123   0.000000
    27  C   -0.000006  -0.009524   0.000000   0.000000   0.000856  -0.031126
    28  H    0.000000   0.001303   0.000000   0.000000   0.000001  -0.025841
    29  C    0.000014   0.000859   0.000000   0.000000  -0.009743   0.000028
    30  H   -0.000015   0.000001   0.000000   0.000000   0.001298   0.000000
    31  H    0.000000   0.000019   0.000000   0.000000  -0.000017   0.001405
    32  H    0.000001  -0.000017   0.000000   0.000000   0.000021  -0.000001
              19         20         21         22         23         24
     1  C    0.000000   0.000001   0.000000   0.000000  -0.000001   0.000000
     2  C   -0.000007   0.000000   0.000000   0.000000   0.000005   0.000000
     3  C    0.000012   0.000035  -0.000006   0.000000  -0.000001   0.000000
     4  H    0.000000   0.000000   0.000000   0.000000   0.000000   0.000000
     5  C    0.000709   0.000000   0.000000   0.000031  -0.002251  -0.000006
     6  H    0.000000   0.000000   0.000000   0.000000   0.000004   0.000000
     7  C    0.000000   0.001439   0.000000   0.000000   0.000000   0.000000
     8  C   -0.006622   0.001344   0.000705  -0.000006   0.000014   0.000012
     9  C   -0.027116  -0.000018   0.000015   0.000800  -0.003375   0.000743
    10  H    0.000015   0.000000   0.000000   0.000005  -0.001544  -0.000001
    11  C   -0.000007  -0.027080   0.000031   0.000000   0.000000   0.000000
    12  H    0.000000  -0.000033   0.000000   0.000000   0.000000   0.000000
    13  C   -0.027159  -0.024909  -0.026813   0.000000   0.000000   0.000746
    14  C    0.468275   0.000000   0.000776  -0.027882  -0.025043  -0.027651
    15  C    0.000707   0.394533  -0.006173   0.000000   0.000000  -0.000006
    16  H    0.000000  -0.004086   0.000000   0.000000   0.000000   0.000000
    17  C    0.468332  -0.003360   0.524126   0.000026  -0.000018  -0.027768
    18  C   -0.030860   0.000000  -0.000008   0.484524   0.394208  -0.010413
    19  C    4.774692   0.000014  -0.030734  -0.009468   0.001337   0.479556
    20  H    0.000014   0.604197  -0.002219   0.000000   0.000000  -0.000001
    21  C   -0.030734  -0.002219   4.788102   0.000000   0.000000  -0.010379
    22  C   -0.009468   0.000000   0.000000   4.771378  -0.026928  -0.030529
    23  H    0.001337   0.000000   0.000000  -0.026928   0.604737   0.000036
    24  C    0.479556  -0.000001  -0.010379  -0.030529   0.000036   4.756881
    25  C   -0.009374   0.000005   0.484408  -0.000010   0.000000  -0.030111
    26  H    0.001339  -0.001526   0.394270   0.000000   0.000000   0.000036
    27  C   -0.028038   0.000000   0.000028   0.532353   0.001439   0.474412
    28  H    0.000021   0.000000   0.000000   0.394032  -0.004008   0.001400
    29  C   -0.028254  -0.000001  -0.031513   0.000888   0.000001   0.474345
    30  H    0.000019   0.000004  -0.025611   0.000000   0.000000   0.001386
    31  H    0.001214   0.000000  -0.000001  -0.024969  -0.000033  -0.025524
    32  H    0.001232   0.000000   0.001427   0.000028   0.000000  -0.025822
              25         26         27         28         29         30
     1  C    0.000000   0.000000   0.000000   0.000000   0.000000   0.000000
     2  C    0.000000   0.000000   0.000000   0.000000   0.000000   0.000000
     3  C    0.000000  -0.000001   0.000000   0.000000   0.000000   0.000000
     4  H    0.000000   0.000000   0.000000   0.000000   0.000000   0.000000
     5  C    0.000000   0.000000   0.000000   0.000000   0.000000   0.000000
     6  H    0.000000   0.000000   0.000000   0.000000   0.000000   0.000000
     7  C    0.000000  -0.000001   0.000000   0.000000   0.000000   0.000000
     8  C   -0.000006   0.000015   0.000000   0.000000   0.000000   0.000000
     9  C    0.000000   0.000000   0.000014  -0.000015  -0.000006   0.000000
    10  H    0.000000   0.000000  -0.000001   0.000004   0.000000   0.000000
    11  C    0.000000   0.000005   0.000000   0.000000   0.000000   0.000000
    12  H    0.000000   0.000000   0.000000   0.000000   0.000000   0.000000
    13  C    0.000807  -0.003443  -0.000006   0.000000   0.000014  -0.000015
    14  C    0.000025  -0.000018  -0.009524   0.001303   0.000859   0.000001
    15  C    0.000031  -0.002234   0.000000   0.000000   0.000000   0.000000
    16  H    0.000000   0.000004   0.000000   0.000000   0.000000   0.000000
    17  C   -0.027948  -0.025123   0.000856   0.000001  -0.009743   0.001298
    18  C    0.000000   0.000000  -0.031126  -0.025841   0.000028   0.000000
    19  C   -0.009374   0.001339  -0.028038   0.000021  -0.028254   0.000019
    20  H    0.000005  -0.001526   0.000000   0.000000  -0.000001   0.000004
    21  C    0.484408   0.394270   0.000028   0.000000  -0.031513  -0.025611
    22  C   -0.000010   0.000000   0.532353   0.394032   0.000888   0.000000
    23  H    0.000000   0.000000   0.001439  -0.004008   0.000001   0.000000
    24  C   -0.030111   0.000036   0.474412   0.001400   0.474345   0.001386
    25  C    4.771052  -0.026929   0.000879   0.000000   0.532564   0.394024
    26  H   -0.026929   0.604635   0.000001   0.000000   0.001452  -0.003955
    27  C    0.000879   0.000001   4.785579  -0.025309  -0.031540  -0.000018
    28  H    0.000000   0.000000  -0.025309   0.599326  -0.000018   0.000000
    29  C    0.532564   0.001452  -0.031540  -0.000018   4.785988  -0.025260
    30  H    0.394024  -0.003955  -0.000018   0.000000  -0.025260   0.598765
    31  H    0.000027   0.000000   0.392843  -0.003638  -0.003986  -0.000001
    32  H   -0.025140  -0.000034  -0.004043  -0.000001   0.393211  -0.003660
              31         32
     1  C    0.000000   0.000000
     2  C    0.000000   0.000000
     3  C    0.000000   0.000000
     4  H    0.000000   0.000000
     5  C    0.000000   0.000000
     6  H    0.000000   0.000000
     7  C    0.000000   0.000000
     8  C    0.000000   0.000000
     9  C    0.000001   0.000000
    10  H    0.000000   0.000000
    11  C    0.000000   0.000000
    12  H    0.000000   0.000000
    13  C    0.000000   0.000001
    14  C    0.000019  -0.000017
    15  C    0.000000   0.000000
    16  H    0.000000   0.000000
    17  C   -0.000017   0.000021
    18  C    0.001405  -0.000001
    19  C    0.001214   0.001232
    20  H    0.000000   0.000000
    21  C   -0.000001   0.001427
    22  C   -0.024969   0.000028
    23  H   -0.000033   0.000000
    24  C   -0.025524  -0.025822
    25  C    0.000027  -0.025140
    26  H    0.000000  -0.000034
    27  C    0.392843  -0.004043
    28  H   -0.003638  -0.000001
    29  C   -0.003986   0.393211
    30  H   -0.000001  -0.003660
    31  H    0.600750   0.000553
    32  H    0.000553   0.601082
 Mulliken charges:
               1
     1  C   -0.059258
     2  C   -0.063998
     3  C   -0.000871
     4  H    0.061450
     5  C   -0.060854
     6  H    0.062555
     7  C   -0.059421
     8  C   -0.000087
     9  C   -0.001051
    10  H    0.061575
    11  C   -0.064280
    12  H    0.061625
    13  C   -0.000872
    14  C   -0.001027
    15  C   -0.060964
    16  H    0.062349
    17  C   -0.001262
    18  C   -0.060467
    19  C    0.000162
    20  H    0.061660
    21  C   -0.060431
    22  C   -0.064273
    23  H    0.061420
    24  C   -0.001343
    25  C   -0.064304
    26  H    0.061506
    27  C   -0.058799
    28  H    0.062742
    29  C   -0.059030
    30  H    0.063024
    31  H    0.061357
    32  H    0.061165
 Sum of Mulliken charges =   0.00000
 Mulliken charges with hydrogens summed into heavy atoms:
               1
     1  C    0.002192
     2  C   -0.001444
     3  C   -0.000871
     5  C    0.000721
     7  C    0.002205
     8  C   -0.000087
     9  C   -0.001051
    11  C   -0.001931
    13  C   -0.000872
    14  C   -0.001027
    15  C    0.000696
    17  C   -0.001262
    18  C    0.000952
    19  C    0.000162
    21  C    0.001076
    22  C   -0.001531
    24  C   -0.001343
    25  C   -0.001281
    27  C    0.002558
    29  C    0.002135
 Electronic spatial extent (au):  <R**2>=          19943.9359
 Charge=              0.0000 electrons
 Dipole moment (field-independent basis, Debye):
    X=              0.0055    Y=             -0.0247    Z=             -0.0406  Tot=              0.0478
 Quadrupole moment (field-independent basis, Debye-Ang):
   XX=            -98.7781   YY=           -101.7428   ZZ=           -105.4325
   XY=              1.5121   XZ=              1.9264   YZ=             -5.4279
 Traceless Quadrupole moment (field-independent basis, Debye-Ang):
   XX=              3.2064   YY=              0.2417   ZZ=             -3.4481
   XY=              1.5121   XZ=              1.9264   YZ=             -5.4279
 Octapole moment (field-independent basis, Debye-Ang**2):
  XXX=          -1579.0683  YYY=           -473.1387  ZZZ=           -368.1095  XYY=           -537.3131
  XXY=           -136.0628  XXZ=            -93.3630  XZZ=           -556.4821  YZZ=           -174.9540
  YYZ=           -135.0233  XYZ=            -23.8543
 Hexadecapole moment (field-independent basis, Debye-Ang**3):
 XXXX=         -20323.2337 YYYY=          -2964.2977 ZZZZ=          -1927.7325 XXXY=          -2404.5242
 XXXZ=          -2052.8420 YYYX=          -2622.6965 YYYZ=           -166.5401 ZZZX=          -2411.2907
 ZZZY=           -131.5617 XXYY=          -3923.4245 XXZZ=          -3850.1069 YYZZ=           -821.6787
 XXYZ=           -150.4908 YYXZ=           -867.7030 ZZXY=           -984.1482
 N-N= 1.369275486214D+03 E-N=-4.498282798998D+03  KE= 7.483908504321D+02
 Merz-Kollman atomic radii used.

 **********************************************************************

            Electrostatic Properties Using The SCF Density

 **********************************************************************

       Atomic Center    1 is at   8.947319  2.503291  1.609009
       Atomic Center    2 is at   8.525132  3.469300  0.726636
       Atomic Center    3 is at   8.048868  1.508514  2.057225
       Atomic Center    4 is at   9.976679  2.472568  1.965282
       Atomic Center    5 is at   7.194744  3.492590  0.287876
       Atomic Center    6 is at   9.218517  4.222881  0.355012
       Atomic Center    7 is at   8.489705  0.478143  2.917662
       Atomic Center    8 is at   6.685054  1.529948  1.616675
       Atomic Center    9 is at   6.260610  2.557768  0.722497
       Atomic Center   10 is at   6.907569  4.269910 -0.415385
       Atomic Center   11 is at   7.609515 -0.489156  3.337869
       Atomic Center   12 is at   9.535523  0.460432  3.225160
       Atomic Center   13 is at   5.789379  0.508935  2.056037
       Atomic Center   14 is at   4.862179  2.592695  0.281170
       Atomic Center   15 is at   6.274032 -0.473651  2.912564
       Atomic Center   16 is at   7.936565 -1.282166  4.006204
       Atomic Center   17 is at   4.397105  0.527001  1.593980
       Atomic Center   18 is at   4.376648  3.579878 -0.572980
       Atomic Center   19 is at   3.961542  1.582272  0.736521
       Atomic Center   20 is at   5.622604 -1.269159  3.263596
       Atomic Center   21 is at   3.483230 -0.455868  1.961251
       Atomic Center   22 is at   3.040212  3.602490 -0.997030
       Atomic Center   23 is at   5.038453  4.362383 -0.936180
       Atomic Center   24 is at   2.595334  1.613926  0.305152
       Atomic Center   25 is at   2.144212 -0.415609  1.548116
       Atomic Center   26 is at   3.796846 -1.284526  2.590825
       Atomic Center   27 is at   2.158527  2.639316 -0.564854
       Atomic Center   28 is at   2.716362  4.389786 -1.675598
       Atomic Center   29 is at   1.703829  0.606654  0.740504
       Atomic Center   30 is at   1.464530 -1.203186  1.870910
       Atomic Center   31 is at   1.117923  2.640042 -0.892703
       Atomic Center   32 is at   0.664637  0.660458  0.420203
    1298 points will be used for fitting atomic charges
 Fitting point charges to electrostatic potential
 Charges from ESP fit, RMS=   0.00066 RRMS=   0.11400:
 ESP charges:
               1
     1  C   -0.194603
     2  C   -0.029164
     3  C    0.205244
     4  H    0.090612
     5  C   -0.126775
     6  H    0.062622
     7  C   -0.210361
     8  C   -0.034073
     9  C    0.037194
    10  H    0.079259
    11  C   -0.014050
    12  H    0.095021
    13  C    0.049293
    14  C    0.020125
    15  C   -0.142941
    16  H    0.059499
    17  C    0.008435
    18  C   -0.125977
    19  C   -0.003032
    20  H    0.083487
    21  C   -0.117635
    22  C   -0.023831
    23  H    0.078205
    24  C    0.188550
    25  C   -0.034438
    26  H    0.079237
    27  C   -0.196976
    28  H    0.061485
    29  C   -0.190327
    30  H    0.063897
    31  H    0.091649
    32  H    0.090370
 Sum of ESP charges =   0.00000
 ESP charges with hydrogens summed into heavy atoms:
               1
     1  C   -0.103992
     2  C    0.033458
     3  C    0.205244
     5  C   -0.047516
     7  C   -0.115340
     8  C   -0.034073
     9  C    0.037194
    11  C    0.045449
    13  C    0.049293
    14  C    0.020125
    15  C   -0.059454
    17  C    0.008435
    18  C   -0.047772
    19  C   -0.003032
    21  C   -0.038398
    22  C    0.037654
    24  C    0.188550
    25  C    0.029459
    27  C   -0.105327
    29  C   -0.099957
 Charge=   0.00000 Dipole=     0.0037    -0.0242    -0.0305 Tot=     0.0391
 -----------------------------------------------------------------

              Electrostatic Properties (Atomic Units)

 -----------------------------------------------------------------
    Center     Electric         -------- Electric Field --------
               Potential          X             Y             Z
 -----------------------------------------------------------------
    1 Atom    -14.555253
    2 Atom    -14.553514
    3 Atom    -14.543293
    4 Atom     -1.144368
    5 Atom    -14.556067
    6 Atom     -1.144651
    7 Atom    -14.555219
    8 Atom    -14.543876
    9 Atom    -14.541693
   10 Atom     -1.145074
   11 Atom    -14.553951
   12 Atom     -1.144097
   13 Atom    -14.541531
   14 Atom    -14.541727
   15 Atom    -14.556075
   16 Atom     -1.145132
   17 Atom    -14.541767
   18 Atom    -14.555876
   19 Atom    -14.543930
   20 Atom     -1.144823
   21 Atom    -14.555816
   22 Atom    -14.553377
   23 Atom     -1.145143
   24 Atom    -14.543162
   25 Atom    -14.553262
   26 Atom     -1.145134
   27 Atom    -14.554785
   28 Atom     -1.144299
   29 Atom    -14.555136
   30 Atom     -1.143827
   31 Atom     -1.144446
   32 Atom     -1.144851
 -----------------------------------------------------------------
 Calling FoFJK, ICntrl=      2127 FMM=F ISym2X=0 I1Cent= 0 IOpClX= 0 NMat=1 NMatS=1 NMatT=0.
 -------------------------------------------------------------------
 Center     Atomic                   Forces (Hartrees/Bohr)
 Number     Number              X              Y              Z
 -------------------------------------------------------------------
      1        6           0.003554556    0.018211042   -0.014153103
      2        6           0.016410699   -0.009231956    0.012399764
      3        6          -0.017497372    0.000240562   -0.006364257
      4        1          -0.005960703    0.001111476   -0.003279979
      5        6          -0.018991536   -0.007728441   -0.000092576
      6        1          -0.003629204   -0.004132199    0.003048074
      7        6          -0.005531174   -0.019473209    0.012351335
      8        6           0.018085679   -0.000157819    0.004396031
      9        6           0.030695231    0.017062493   -0.003963370
     10        1           0.001537022   -0.004725873    0.005060209
     11        6           0.019266403    0.008205587    0.000652752
     12        1          -0.007389740    0.000209526   -0.000625757
     13        6           0.023279857   -0.017792791    0.020415985
     14        6          -0.025043102    0.018634252   -0.020194756
     15        6          -0.014430306    0.008815756   -0.011683954
     16        1          -0.000245151    0.003187325   -0.003188637
     17        6          -0.030818549   -0.017256507    0.001593948
     18        6           0.015960377   -0.009724773    0.011679738
     19        6          -0.016867542    0.000126922   -0.006314076
     20        1           0.003653064    0.005363230   -0.001740474
     21        6           0.019283338    0.008358163    0.001257047
     22        6          -0.019151432   -0.009783414    0.001360885
     23        1          -0.004710165   -0.005214234    0.002315952
     24        6           0.018380280   -0.001141019    0.005870184
     25        6          -0.014353586    0.011237862   -0.012673742
     26        1          -0.002426462    0.005597779   -0.003532595
     27        6           0.004790521    0.019450855   -0.012978202
     28        1           0.000563026   -0.004191507    0.003794332
     29        6          -0.004548315   -0.019544552    0.012824641
     30        1           0.003184501    0.005018828   -0.001944415
     31        1           0.007517479    0.001009355    0.002223713
     32        1           0.005432305   -0.001742719    0.001485304
 -------------------------------------------------------------------
 Cartesian Forces:  Max     0.030818549 RMS     0.011636459

 GradGradGradGradGradGradGradGradGradGradGradGradGradGradGradGradGradGrad
 Berny optimization.
 FormGI is forming the generalized inverse of G from B-inverse, IUseBI=4.
 Internal  Forces:  Max     0.022529471 RMS     0.005349479
 Search for a local minimum.
 Step number   1 out of a maximum of  192
 All quantities printed in internal units (Hartrees-Bohrs-Radians)
 Mixed Optimization -- RFO/linear search
 Second derivative matrix not updated -- first step.
 ITU=  0
     Eigenvalues ---    0.01469   0.01568   0.01710   0.01714   0.01719
     Eigenvalues ---    0.01723   0.01771   0.01808   0.01817   0.01941
     Eigenvalues ---    0.01962   0.02004   0.02022   0.02114   0.02121
     Eigenvalues ---    0.02127   0.02132   0.02138   0.02150   0.02152
     Eigenvalues ---    0.02163   0.02192   0.02199   0.02205   0.02211
     Eigenvalues ---    0.02273   0.02279   0.02284   0.02293   0.15997
     Eigenvalues ---    0.15998   0.15998   0.15998   0.16000   0.16000
     Eigenvalues ---    0.16000   0.16000   0.16000   0.16000   0.16000
     Eigenvalues ---    0.16000   0.22058   0.22060   0.22198   0.22219
     Eigenvalues ---    0.23292   0.23386   0.23695   0.23732   0.24872
     Eigenvalues ---    0.24883   0.24940   0.24960   0.24996   0.32649
     Eigenvalues ---    0.34323   0.34694   0.34786   0.34847   0.34883
     Eigenvalues ---    0.34901   0.34956   0.34969   0.35112   0.35127
     Eigenvalues ---    0.35171   0.35178   0.35224   0.35937   0.36108
     Eigenvalues ---    0.37776   0.39004   0.39292   0.39899   0.41903
     Eigenvalues ---    0.42005   0.42095   0.42294   0.44236   0.44340
     Eigenvalues ---    0.44367   0.44478   0.45946   0.46157   0.46185
     Eigenvalues ---    0.46314   0.48737   0.48934   0.48957   0.49173
 RFO step:  Lambda=-1.28618359D-02 EMin= 1.46860684D-02
 Linear search not attempted -- first point.
 Iteration  1 RMS(Cart)=  0.01893414 RMS(Int)=  0.00015890
 Iteration  2 RMS(Cart)=  0.00022689 RMS(Int)=  0.00002445
 Iteration  3 RMS(Cart)=  0.00000004 RMS(Int)=  0.00002445
 Variable       Old X    -DE/DX   Delta X   Delta X   Delta X     New X
                                 (Linear)    (Quad)   (Total)
    R1        2.59794  -0.02022   0.00000  -0.04000  -0.04001   2.55793
    R2        2.67093   0.00780   0.00000   0.01761   0.01761   2.68855
    R3        2.05924  -0.00673   0.00000  -0.01864  -0.01864   2.04061
    R4        2.64763   0.00664   0.00000   0.01336   0.01334   2.66097
    R5        2.05865  -0.00621   0.00000  -0.01716  -0.01716   2.04149
    R6        2.67004   0.00870   0.00000   0.01966   0.01968   2.68972
    R7        2.70867  -0.01355   0.00000  -0.03052  -0.03049   2.67818
    R8        2.62896  -0.01779   0.00000  -0.03697  -0.03697   2.59199
    R9        2.05387  -0.00706   0.00000  -0.01936  -0.01936   2.03451
   R10        2.59586  -0.01929   0.00000  -0.03796  -0.03797   2.55789
   R11        2.06024  -0.00727   0.00000  -0.02015  -0.02015   2.04009
   R12        2.69650   0.00646   0.00000   0.01590   0.01594   2.71244
   R13        2.69757   0.00609   0.00000   0.01493   0.01496   2.71253
   R14        2.77191   0.02253   0.00000   0.06024   0.06025   2.83216
   R15        2.64875   0.00621   0.00000   0.01247   0.01245   2.66119
   R16        2.05494  -0.00436   0.00000  -0.01197  -0.01197   2.04297
   R17        2.62801  -0.01732   0.00000  -0.03598  -0.03599   2.59202
   R18        2.77233   0.02228   0.00000   0.05958   0.05957   2.83191
   R19        2.63198  -0.01965   0.00000  -0.04117  -0.04117   2.59081
   R20        2.69870   0.00524   0.00000   0.01310   0.01307   2.71177
   R21        2.05313  -0.00668   0.00000  -0.01830  -0.01830   2.03483
   R22        2.69811   0.00559   0.00000   0.01389   0.01386   2.71197
   R23        2.62943  -0.01841   0.00000  -0.03836  -0.03835   2.59107
   R24        2.64993   0.00538   0.00000   0.01054   0.01054   2.66047
   R25        2.05469  -0.00739   0.00000  -0.02030  -0.02030   2.03439
   R26        2.70805  -0.01325   0.00000  -0.02944  -0.02945   2.67860
   R27        2.64917   0.00615   0.00000   0.01222   0.01223   2.66140
   R28        2.05398  -0.00701   0.00000  -0.01924  -0.01924   2.03474
   R29        2.59921  -0.02121   0.00000  -0.04206  -0.04205   2.55716
   R30        2.05726  -0.00556   0.00000  -0.01535  -0.01535   2.04191
   R31        2.67190   0.00683   0.00000   0.01560   0.01560   2.68750
   R32        2.67175   0.00711   0.00000   0.01617   0.01617   2.68791
   R33        2.59877  -0.02102   0.00000  -0.04165  -0.04164   2.55712
   R34        2.05836  -0.00619   0.00000  -0.01711  -0.01711   2.04125
   R35        2.06174  -0.00784   0.00000  -0.02178  -0.02178   2.03996
   R36        2.05747  -0.00571   0.00000  -0.01575  -0.01575   2.04172
    A1        2.09772   0.00079   0.00000   0.00324   0.00319   2.10091
    A2        2.11735  -0.00185   0.00000  -0.00992  -0.00997   2.10738
    A3        2.06797   0.00107   0.00000   0.00697   0.00692   2.07489
    A4        2.09935   0.00054   0.00000   0.00001  -0.00001   2.09933
    A5        2.10546  -0.00097   0.00000  -0.00402  -0.00402   2.10144
    A6        2.07836   0.00043   0.00000   0.00405   0.00404   2.08241
    A7        2.10371   0.00285   0.00000   0.00828   0.00820   2.11191
    A8        2.09074  -0.00167   0.00000  -0.00498  -0.00501   2.08572
    A9        2.08856  -0.00118   0.00000  -0.00304  -0.00302   2.08554
   A10        2.12773   0.00089   0.00000   0.00257   0.00256   2.13030
   A11        2.05490  -0.00026   0.00000  -0.00019  -0.00020   2.05470
   A12        2.10054  -0.00063   0.00000  -0.00235  -0.00236   2.09818
   A13        2.09426   0.00150   0.00000   0.00652   0.00653   2.10079
   A14        2.07476   0.00003   0.00000   0.00130   0.00127   2.07603
   A15        2.11406  -0.00152   0.00000  -0.00768  -0.00771   2.10635
   A16        2.07875   0.00028   0.00000   0.00218   0.00211   2.08087
   A17        2.08484  -0.00116   0.00000  -0.00367  -0.00371   2.08113
   A18        2.11933   0.00089   0.00000   0.00192   0.00185   2.12118
   A19        2.07152  -0.00082   0.00000  -0.00242  -0.00242   2.06910
   A20        2.12958   0.00143   0.00000   0.00372   0.00367   2.13326
   A21        2.08205  -0.00061   0.00000  -0.00121  -0.00123   2.08083
   A22        2.10586  -0.00102   0.00000  -0.00650  -0.00651   2.09935
   A23        2.10460  -0.00050   0.00000  -0.00258  -0.00258   2.10202
   A24        2.07272   0.00152   0.00000   0.00909   0.00909   2.08181
   A25        2.06719   0.00037   0.00000   0.00179   0.00180   2.06899
   A26        2.08256  -0.00083   0.00000  -0.00199  -0.00199   2.08057
   A27        2.13343   0.00046   0.00000   0.00020   0.00018   2.13362
   A28        2.13381   0.00048   0.00000   0.00013   0.00015   2.13397
   A29        2.08113  -0.00032   0.00000  -0.00015  -0.00017   2.08096
   A30        2.06824  -0.00016   0.00000   0.00002   0.00002   2.06826
   A31        2.12556   0.00149   0.00000   0.00502   0.00499   2.13055
   A32        2.05459  -0.00050   0.00000  -0.00101  -0.00103   2.05356
   A33        2.10293  -0.00099   0.00000  -0.00383  -0.00386   2.09907
   A34        2.08032   0.00001   0.00000   0.00096   0.00093   2.08125
   A35        2.13114   0.00089   0.00000   0.00168   0.00171   2.13285
   A36        2.07172  -0.00091   0.00000  -0.00261  -0.00264   2.06908
   A37        2.12836   0.00099   0.00000   0.00244   0.00244   2.13079
   A38        2.09759  -0.00020   0.00000   0.00046   0.00046   2.09805
   A39        2.05722  -0.00078   0.00000  -0.00288  -0.00289   2.05434
   A40        2.12003   0.00088   0.00000   0.00116   0.00111   2.12114
   A41        2.08247  -0.00060   0.00000  -0.00113  -0.00112   2.08135
   A42        2.08052  -0.00026   0.00000   0.00021   0.00016   2.08069
   A43        2.12853   0.00074   0.00000   0.00168   0.00166   2.13019
   A44        2.09661  -0.00010   0.00000   0.00074   0.00074   2.09735
   A45        2.05804  -0.00064   0.00000  -0.00240  -0.00239   2.05564
   A46        2.09973   0.00068   0.00000   0.00026   0.00026   2.09999
   A47        2.07563   0.00076   0.00000   0.00626   0.00626   2.08188
   A48        2.10782  -0.00144   0.00000  -0.00650  -0.00651   2.10131
   A49        2.08952  -0.00140   0.00000  -0.00366  -0.00366   2.08585
   A50        2.08602  -0.00038   0.00000   0.00014   0.00008   2.08610
   A51        2.10755   0.00179   0.00000   0.00365   0.00367   2.11122
   A52        2.09472   0.00175   0.00000   0.00509   0.00507   2.09980
   A53        2.08050  -0.00006   0.00000   0.00221   0.00221   2.08270
   A54        2.10795  -0.00169   0.00000  -0.00727  -0.00727   2.10068
   A55        2.09803   0.00049   0.00000   0.00211   0.00209   2.10012
   A56        2.11356  -0.00118   0.00000  -0.00642  -0.00645   2.10712
   A57        2.07150   0.00070   0.00000   0.00447   0.00445   2.07594
   A58        2.10424  -0.00091   0.00000  -0.00386  -0.00388   2.10036
   A59        2.06696   0.00161   0.00000   0.00864   0.00865   2.07561
   A60        2.11198  -0.00070   0.00000  -0.00478  -0.00477   2.10721
    D1        0.02438  -0.00049   0.00000  -0.01455  -0.01455   0.00982
    D2       -3.11173  -0.00080   0.00000  -0.02329  -0.02327  -3.13500
    D3       -3.13587   0.00012   0.00000   0.00372   0.00364  -3.13223
    D4        0.01120  -0.00019   0.00000  -0.00502  -0.00507   0.00613
    D5        3.09277   0.00111   0.00000   0.03553   0.03560   3.12837
    D6       -0.02885   0.00066   0.00000   0.02019   0.02022  -0.00864
    D7       -0.03069   0.00055   0.00000   0.01796   0.01792  -0.01277
    D8        3.13088   0.00009   0.00000   0.00262   0.00253   3.13341
    D9        0.00346   0.00000   0.00000  -0.00130  -0.00133   0.00213
   D10       -3.13374  -0.00028   0.00000  -0.00843  -0.00844   3.14101
   D11        3.13966   0.00030   0.00000   0.00728   0.00726  -3.13627
   D12        0.00246   0.00002   0.00000   0.00015   0.00015   0.00261
   D13       -3.13244  -0.00008   0.00000  -0.00425  -0.00429  -3.13673
   D14       -0.00600   0.00029   0.00000   0.00666   0.00665   0.00065
   D15       -0.01079   0.00037   0.00000   0.01105   0.01107   0.00028
   D16        3.11565   0.00073   0.00000   0.02196   0.02201   3.13766
   D17        0.00607  -0.00031   0.00000  -0.01014  -0.01014  -0.00408
   D18        3.12338   0.00030   0.00000   0.00964   0.00962   3.13301
   D19       -3.11573  -0.00081   0.00000  -0.02548  -0.02542  -3.14115
   D20        0.00159  -0.00019   0.00000  -0.00570  -0.00566  -0.00407
   D21       -0.02600   0.00036   0.00000   0.01124   0.01126  -0.01474
   D22        3.12436  -0.00002   0.00000  -0.00068  -0.00065   3.12370
   D23        3.11109   0.00064   0.00000   0.01856   0.01855   3.12963
   D24       -0.02175   0.00026   0.00000   0.00664   0.00663  -0.01511
   D25        0.00945  -0.00027   0.00000  -0.00820  -0.00820   0.00125
   D26       -3.13331  -0.00022   0.00000  -0.00610  -0.00611  -3.13942
   D27       -3.11663  -0.00066   0.00000  -0.01944  -0.01942  -3.13605
   D28        0.02379  -0.00061   0.00000  -0.01734  -0.01732   0.00647
   D29        0.02070  -0.00022   0.00000  -0.00536  -0.00528   0.01542
   D30       -3.12941   0.00015   0.00000   0.00625   0.00629  -3.12312
   D31       -3.09612  -0.00082   0.00000  -0.02546  -0.02544  -3.12156
   D32        0.03696  -0.00045   0.00000  -0.01385  -0.01387   0.02309
   D33        0.00882  -0.00009   0.00000  -0.00251  -0.00248   0.00633
   D34       -3.13230  -0.00022   0.00000  -0.00681  -0.00679  -3.13909
   D35        3.12555   0.00053   0.00000   0.01775   0.01776  -3.13988
   D36       -0.01557   0.00040   0.00000   0.01344   0.01345  -0.00211
   D37       -0.02720   0.00021   0.00000   0.00736   0.00736  -0.01984
   D38        3.11253   0.00034   0.00000   0.01158   0.01158   3.12411
   D39        3.12320  -0.00016   0.00000  -0.00462  -0.00462   3.11858
   D40       -0.02025  -0.00003   0.00000  -0.00040  -0.00040  -0.02065
   D41        0.00138  -0.00001   0.00000  -0.00021  -0.00020   0.00118
   D42        3.12765   0.00043   0.00000   0.01316   0.01318   3.14083
   D43       -3.13907  -0.00005   0.00000  -0.00227  -0.00227  -3.14133
   D44       -0.01279   0.00039   0.00000   0.01110   0.01111  -0.00168
   D45       -0.01049   0.00018   0.00000   0.00552   0.00553  -0.00496
   D46       -3.13634  -0.00028   0.00000  -0.00824  -0.00822   3.13862
   D47        3.13061   0.00031   0.00000   0.00996   0.00997   3.14059
   D48        0.00476  -0.00014   0.00000  -0.00380  -0.00378   0.00098
   D49       -0.02263   0.00001   0.00000   0.00087   0.00088  -0.02175
   D50        3.11553   0.00022   0.00000   0.00778   0.00779   3.12332
   D51        3.11946  -0.00013   0.00000  -0.00360  -0.00359   3.11587
   D52       -0.02557   0.00009   0.00000   0.00330   0.00332  -0.02225
   D53        3.13494   0.00017   0.00000   0.00513   0.00512   3.14006
   D54       -0.00196  -0.00001   0.00000  -0.00026  -0.00027  -0.00223
   D55       -0.00481   0.00004   0.00000   0.00094   0.00093  -0.00388
   D56        3.14148  -0.00014   0.00000  -0.00445  -0.00446   3.13702
   D57       -0.01804   0.00045   0.00000   0.01480   0.01480  -0.00323
   D58       -3.14034   0.00001   0.00000   0.00013   0.00013  -3.14021
   D59        3.12177   0.00057   0.00000   0.01886   0.01886   3.14063
   D60       -0.00054   0.00014   0.00000   0.00419   0.00419   0.00365
   D61        0.03939  -0.00048   0.00000  -0.01516  -0.01517   0.02422
   D62       -3.12147  -0.00005   0.00000  -0.00052  -0.00052  -3.12198
   D63       -3.09888  -0.00069   0.00000  -0.02183  -0.02184  -3.12072
   D64        0.02344  -0.00026   0.00000  -0.00719  -0.00718   0.01626
   D65        3.11016   0.00041   0.00000   0.01189   0.01188   3.12204
   D66       -0.02588   0.00031   0.00000   0.00812   0.00811  -0.01777
   D67       -0.03485   0.00063   0.00000   0.01877   0.01875  -0.01610
   D68        3.11229   0.00053   0.00000   0.01500   0.01498   3.12728
   D69        0.00829  -0.00020   0.00000  -0.00604  -0.00604   0.00225
   D70       -3.12775  -0.00034   0.00000  -0.01006  -0.01006  -3.13781
   D71       -3.13789  -0.00002   0.00000  -0.00076  -0.00077  -3.13866
   D72        0.00925  -0.00016   0.00000  -0.00478  -0.00480   0.00446
   D73        0.00248  -0.00013   0.00000  -0.00435  -0.00435  -0.00187
   D74        3.12845   0.00015   0.00000   0.00503   0.00501   3.13347
   D75       -3.12026  -0.00057   0.00000  -0.01870  -0.01869  -3.13895
   D76        0.00571  -0.00028   0.00000  -0.00932  -0.00933  -0.00362
   D77        0.01603  -0.00042   0.00000  -0.01334  -0.01336   0.00267
   D78       -3.13017  -0.00013   0.00000  -0.00521  -0.00520  -3.13538
   D79       -3.13100  -0.00032   0.00000  -0.00964  -0.00967  -3.14066
   D80        0.00598  -0.00003   0.00000  -0.00151  -0.00151   0.00447
   D81       -0.00615   0.00021   0.00000   0.00583   0.00583  -0.00032
   D82       -3.13323  -0.00023   0.00000  -0.00713  -0.00708  -3.14031
   D83        3.12978   0.00036   0.00000   0.00997   0.00994   3.13972
   D84        0.00271  -0.00009   0.00000  -0.00299  -0.00297  -0.00027
   D85        0.00087  -0.00003   0.00000  -0.00066  -0.00066   0.00021
   D86        3.12829   0.00039   0.00000   0.01190   0.01193   3.14023
   D87       -3.12491  -0.00030   0.00000  -0.01012  -0.01013  -3.13504
   D88        0.00252   0.00012   0.00000   0.00244   0.00247   0.00498
   D89       -0.02503   0.00050   0.00000   0.01512   0.01510  -0.00993
   D90        3.11784   0.00048   0.00000   0.01396   0.01394   3.13178
   D91        3.10078   0.00076   0.00000   0.02453   0.02454   3.12531
   D92       -0.03953   0.00074   0.00000   0.02337   0.02337  -0.01616
   D93        0.01462  -0.00011   0.00000  -0.00397  -0.00399   0.01064
   D94       -3.12828  -0.00009   0.00000  -0.00277  -0.00279  -3.13108
   D95       -3.12228  -0.00041   0.00000  -0.01226  -0.01226  -3.13454
   D96        0.01800  -0.00039   0.00000  -0.01106  -0.01106   0.00694
         Item               Value     Threshold  Converged?
 Maximum Force            0.022529     0.000450     NO 
 RMS     Force            0.005349     0.000300     NO 
 Maximum Displacement     0.063824     0.001800     NO 
 RMS     Displacement     0.018888     0.001200     NO 
 Predicted change in Energy=-6.703656D-03
 GradGradGradGradGradGradGradGradGradGradGradGradGradGradGradGradGradGrad

                          Input orientation:                          
 ---------------------------------------------------------------------
 Center     Atomic      Atomic             Coordinates (Angstroms)
 Number     Number       Type             X           Y           Z
 ---------------------------------------------------------------------
      1          6           0        8.958101    2.499346    1.587790
      2          6           0        8.537287    3.462009    0.734313
      3          6           0        8.057123    1.495951    2.041180
      4          1           0        9.980158    2.478348    1.935667
      5          6           0        7.199453    3.486740    0.295671
      6          1           0        9.222542    4.220591    0.384964
      7          6           0        8.489247    0.468208    2.925996
      8          6           0        6.710205    1.516786    1.600815
      9          6           0        6.280741    2.555512    0.708140
     10          1           0        6.909071    4.270950   -0.382413
     11          6           0        7.622441   -0.483313    3.344842
     12          1           0        9.518057    0.458645    3.252990
     13          6           0        5.808693    0.495570    2.053365
     14          6           0        4.850604    2.591370    0.261412
     15          6           0        6.283868   -0.466564    2.907704
     16          1           0        7.948931   -1.263295    4.018483
     17          6           0        4.385434    0.516432    1.584704
     18          6           0        4.367348    3.569798   -0.568514
     19          6           0        3.948781    1.571779    0.715726
     20          1           0        5.631040   -1.244045    3.266605
     21          6           0        3.478002   -0.439967    1.961380
     22          6           0        3.023517    3.598757   -0.987256
     23          1           0        5.018793    4.350412   -0.922387
     24          6           0        2.596484    1.604278    0.292155
     25          6           0        2.135376   -0.404443    1.537641
     26          1           0        3.780794   -1.250752    2.601935
     27          6           0        2.157763    2.645433   -0.571598
[...]
    15  C   -0.031648  -0.031365   0.000766   0.000000   0.472875   0.001505
    16  H   -0.026262   0.000021   0.000001   0.000000   0.395609  -0.004072
    17  C    0.000013  -0.025339  -0.005197   0.000000   0.000806   0.000001
    18  C    0.000000   0.000652  -0.026403  -0.002127   0.000000   0.000000
    19  C    0.000000  -0.005409  -0.025337   0.000018  -0.000006   0.000000
    20  H    0.001457   0.001422  -0.000018   0.000000  -0.026832  -0.000035
    21  C    0.000000   0.000652   0.000014   0.000000   0.000027   0.000000
    22  C    0.000000  -0.000006   0.000806   0.000000   0.000000   0.000000
    23  H    0.000000   0.000018  -0.003672  -0.001328   0.000000   0.000000
    24  C    0.000000   0.000008   0.000704  -0.000001   0.000000   0.000000
    25  C    0.000000  -0.000006   0.000000   0.000000   0.000000   0.000000
    26  H    0.000000   0.000018   0.000000   0.000000   0.000000   0.000000
    27  C    0.000000   0.000000   0.000013   0.000000   0.000000   0.000000
    28  H    0.000000   0.000000  -0.000015   0.000004   0.000000   0.000000
    29  C    0.000000   0.000000  -0.000006   0.000000   0.000000   0.000000
    30  H    0.000000   0.000000   0.000000   0.000000   0.000000   0.000000
    31  H    0.000000   0.000000   0.000001   0.000000   0.000000   0.000000
    32  H    0.000000   0.000000   0.000000   0.000000   0.000000   0.000000
              13         14         15         16         17         18
     1  C    0.000873   0.000013   0.000028  -0.000018  -0.000006   0.000000
     2  C    0.000026   0.000806   0.000000   0.000000   0.000000   0.000027
     3  C   -0.028214   0.000704  -0.010820   0.001484   0.000704  -0.000006
     4  H   -0.000017   0.000001  -0.000001  -0.000001   0.000000   0.000000
     5  C    0.000766  -0.026403  -0.000009   0.000000   0.000014  -0.005871
     6  H    0.000001  -0.000015   0.000000   0.000000   0.000000   0.000000
     7  C   -0.009895  -0.000006  -0.031648  -0.026262   0.000013   0.000000
     8  C    0.459874  -0.025337  -0.031365   0.000021  -0.025339   0.000652
     9  C   -0.026327   0.406966   0.000766   0.000001  -0.005197  -0.026403
    10  H   -0.000018  -0.003672   0.000000   0.000000   0.000000  -0.002127
    11  C   -0.028303   0.000000   0.472875   0.395609   0.000806   0.000000
    12  H    0.000022   0.000000   0.001505  -0.004072   0.000001   0.000000
    13  C    4.767279  -0.005197   0.539643   0.001309   0.406974   0.000014
    14  C   -0.005197   4.767280   0.000014   0.000000  -0.026327   0.539638
    15  C    0.539643   0.000014   4.786200  -0.025433  -0.026408   0.000000
    16  H    0.001309   0.000000  -0.025433   0.597293  -0.000015   0.000000
    17  C    0.406974  -0.026327  -0.026408  -0.000015   4.767280   0.000766
    18  C    0.000014   0.539638   0.000000   0.000000   0.000766   4.786199
    19  C   -0.025339   0.459867   0.000652   0.000000   0.459873  -0.031366
    20  H   -0.025851   0.000000   0.395933  -0.003849  -0.003674   0.000000
    21  C   -0.026408   0.000766  -0.005876   0.000000   0.539642  -0.000009
    22  C    0.000000  -0.028300   0.000000   0.000000   0.000026   0.472871
    23  H    0.000000  -0.025850   0.000000   0.000000  -0.000018   0.395933
    24  C    0.000704  -0.028212  -0.000006   0.000000  -0.028215  -0.010820
    25  C    0.000806   0.000026   0.000027   0.000000  -0.028303   0.000000
    26  H   -0.003674  -0.000018  -0.002131   0.000004  -0.025850   0.000000
    27  C   -0.000006  -0.009894   0.000000   0.000000   0.000873  -0.031649
    28  H    0.000000   0.001309   0.000000   0.000000   0.000001  -0.025432
    29  C    0.000013   0.000873   0.000000   0.000000  -0.009896   0.000028
    30  H   -0.000015   0.000001   0.000000   0.000000   0.001309   0.000000
    31  H    0.000000   0.000022   0.000000   0.000000  -0.000017   0.001505
    32  H    0.000001  -0.000017   0.000000   0.000000   0.000022  -0.000001
              19         20         21         22         23         24
     1  C    0.000000   0.000001   0.000000   0.000000   0.000000   0.000000
     2  C   -0.000006   0.000000   0.000000   0.000000   0.000000   0.000000
     3  C    0.000008   0.000038  -0.000006   0.000000  -0.000001   0.000000
     4  H    0.000000   0.000000   0.000000   0.000000   0.000000   0.000000
     5  C    0.000652   0.000000   0.000000   0.000027  -0.002127  -0.000006
     6  H    0.000000   0.000000   0.000000   0.000000   0.000004   0.000000
     7  C    0.000000   0.001457   0.000000   0.000000   0.000000   0.000000
     8  C   -0.005409   0.001422   0.000652  -0.000006   0.000018   0.000008
     9  C   -0.025337  -0.000018   0.000014   0.000806  -0.003672   0.000704
    10  H    0.000018   0.000000   0.000000   0.000000  -0.001328  -0.000001
    11  C   -0.000006  -0.026832   0.000027   0.000000   0.000000   0.000000
    12  H    0.000000  -0.000035   0.000000   0.000000   0.000000   0.000000
    13  C   -0.025339  -0.025851  -0.026408   0.000000   0.000000   0.000704
    14  C    0.459867   0.000000   0.000766  -0.028300  -0.025850  -0.028212
    15  C    0.000652   0.395933  -0.005876   0.000000   0.000000  -0.000006
    16  H    0.000000  -0.003849   0.000000   0.000000   0.000000   0.000000
    17  C    0.459873  -0.003674   0.539642   0.000026  -0.000018  -0.028215
    18  C   -0.031366   0.000000  -0.000009   0.472871   0.395933  -0.010820
    19  C    4.774865   0.000018  -0.031364  -0.009836   0.001422   0.495700
    20  H    0.000018   0.601928  -0.002131   0.000000   0.000000  -0.000001
    21  C   -0.031364  -0.002131   4.786201   0.000000   0.000000  -0.010820
    22  C   -0.009836   0.000000   0.000000   4.769284  -0.026835  -0.030768
    23  H    0.001422   0.000000   0.000000  -0.026835   0.601924   0.000038
    24  C    0.495700  -0.000001  -0.010820  -0.030768   0.000038   4.757798
    25  C   -0.009836   0.000000   0.472875  -0.000011   0.000000  -0.030767
    26  H    0.001422  -0.001329   0.395934   0.000000   0.000000   0.000038
    27  C   -0.028556   0.000000   0.000028   0.546746   0.001457   0.465548
    28  H    0.000021   0.000000   0.000000   0.395609  -0.003850   0.001484
    29  C   -0.028556   0.000000  -0.031649   0.000872   0.000001   0.465552
    30  H    0.000021   0.000004  -0.025432   0.000000   0.000000   0.001484
    31  H    0.001226   0.000000  -0.000001  -0.026019  -0.000035  -0.025344
    32  H    0.001226   0.000000   0.001505   0.000027   0.000000  -0.025344
              25         26         27         28         29         30
     1  C    0.000000   0.000000   0.000000   0.000000   0.000000   0.000000
     2  C    0.000000   0.000000   0.000000   0.000000   0.000000   0.000000
     3  C    0.000000  -0.000001   0.000000   0.000000   0.000000   0.000000
     4  H    0.000000   0.000000   0.000000   0.000000   0.000000   0.000000
     5  C    0.000000   0.000000   0.000000   0.000000   0.000000   0.000000
     6  H    0.000000   0.000000   0.000000   0.000000   0.000000   0.000000
     7  C    0.000000   0.000000   0.000000   0.000000   0.000000   0.000000
     8  C   -0.000006   0.000018   0.000000   0.000000   0.000000   0.000000
     9  C    0.000000   0.000000   0.000013  -0.000015  -0.000006   0.000000
    10  H    0.000000   0.000000   0.000000   0.000004   0.000000   0.000000
    11  C    0.000000   0.000000   0.000000   0.000000   0.000000   0.000000
    12  H    0.000000   0.000000   0.000000   0.000000   0.000000   0.000000
    13  C    0.000806  -0.003674  -0.000006   0.000000   0.000013  -0.000015
    14  C    0.000026  -0.000018  -0.009894   0.001309   0.000873   0.000001
    15  C    0.000027  -0.002131   0.000000   0.000000   0.000000   0.000000
    16  H    0.000000   0.000004   0.000000   0.000000   0.000000   0.000000
    17  C   -0.028303  -0.025850   0.000873   0.000001  -0.009896   0.001309
    18  C    0.000000   0.000000  -0.031649  -0.025432   0.000028   0.000000
    19  C   -0.009836   0.001422  -0.028556   0.000021  -0.028556   0.000021
    20  H    0.000000  -0.001329   0.000000   0.000000   0.000000   0.000004
    21  C    0.472875   0.395934   0.000028   0.000000  -0.031649  -0.025432
    22  C   -0.000011   0.000000   0.546746   0.395609   0.000872   0.000000
    23  H    0.000000   0.000000   0.001457  -0.003850   0.000001   0.000000
    24  C   -0.030767   0.000038   0.465548   0.001484   0.465552   0.001484
    25  C    4.769283  -0.026832   0.000872   0.000000   0.546741   0.395609
    26  H   -0.026832   0.601928   0.000001   0.000000   0.001457  -0.003849
    27  C    0.000872   0.000001   4.781985  -0.026262  -0.030217  -0.000018
    28  H    0.000000   0.000000  -0.026262   0.597291  -0.000018   0.000000
    29  C    0.546741   0.001457  -0.030217  -0.000018   4.781987  -0.026262
    30  H    0.395609  -0.003849  -0.000018   0.000000  -0.026262   0.597292
    31  H    0.000027   0.000000   0.394839  -0.004072  -0.003756  -0.000001
    32  H   -0.026019  -0.000035  -0.003756  -0.000001   0.394839  -0.004072
              31         32
     1  C    0.000000   0.000000
     2  C    0.000000   0.000000
     3  C    0.000000   0.000000
     4  H    0.000000   0.000000
     5  C    0.000000   0.000000
     6  H    0.000000   0.000000
     7  C    0.000000   0.000000
     8  C    0.000000   0.000000
     9  C    0.000001   0.000000
    10  H    0.000000   0.000000
    11  C    0.000000   0.000000
    12  H    0.000000   0.000000
    13  C    0.000000   0.000001
    14  C    0.000022  -0.000017
    15  C    0.000000   0.000000
    16  H    0.000000   0.000000
    17  C   -0.000017   0.000022
    18  C    0.001505  -0.000001
    19  C    0.001226   0.001226
    20  H    0.000000   0.000000
    21  C   -0.000001   0.001505
    22  C   -0.026019   0.000027
    23  H   -0.000035   0.000000
    24  C   -0.025344  -0.025344
    25  C    0.000027  -0.026019
    26  H    0.000000  -0.000035
    27  C    0.394839  -0.003756
    28  H   -0.004072  -0.000001
    29  C   -0.003756   0.394839
    30  H   -0.000001  -0.004072
    31  H    0.598391   0.000531
    32  H    0.000531   0.598392
 Mulliken charges:
               1
     1  C   -0.062003
     2  C   -0.064493
     3  C    0.001248
     4  H    0.062705
     5  C   -0.063951
     6  H    0.063931
     7  C   -0.062004
     8  C   -0.001382
     9  C    0.000963
    10  H    0.062918
    11  C   -0.064493
    12  H    0.062704
    13  C    0.000959
    14  C    0.000964
    15  C   -0.063949
    16  H    0.063929
    17  C    0.000960
    18  C   -0.063951
    19  C   -0.001383
    20  H    0.062918
    21  C   -0.063949
    22  C   -0.064493
    23  H    0.062918
    24  C    0.001247
    25  C   -0.064493
    26  H    0.062918
    27  C   -0.062003
    28  H    0.063931
    29  C   -0.062004
    30  H    0.063930
    31  H    0.062705
    32  H    0.062704
 Sum of Mulliken charges =   0.00000
 Mulliken charges with hydrogens summed into heavy atoms:
               1
     1  C    0.000701
     2  C   -0.000563
     3  C    0.001248
     5  C   -0.001033
     7  C    0.000701
     8  C   -0.001382
     9  C    0.000963
    11  C   -0.000563
    13  C    0.000959
    14  C    0.000964
    15  C   -0.001031
    17  C    0.000960
    18  C   -0.001033
    19  C   -0.001383
    21  C   -0.001031
    22  C   -0.000562
    24  C    0.001247
    25  C   -0.000563
    27  C    0.000701
    29  C    0.000700
 Electronic spatial extent (au):  <R**2>=          19953.8812
 Charge=              0.0000 electrons
 Dipole moment (field-independent basis, Debye):
    X=              0.0000    Y=             -0.0001    Z=             -0.0002  Tot=              0.0002
 Quadrupole moment (field-independent basis, Debye-Ang):
   XX=            -98.8948   YY=           -101.6855   ZZ=           -105.3243
   XY=              1.6254   XZ=              2.1683   YZ=             -5.2852
 Traceless Quadrupole moment (field-independent basis, Debye-Ang):
   XX=              3.0734   YY=              0.2827   ZZ=             -3.3561
   XY=              1.6254   XZ=              2.1683   YZ=             -5.2852
 Octapole moment (field-independent basis, Debye-Ang**2):
  XXX=          -1581.1724  YYY=           -470.9186  ZZZ=           -365.8769  XYY=           -536.9099
  XXY=           -135.3374  XXZ=            -91.3992  XZZ=           -556.3021  YZZ=           -174.8265
  YYZ=           -134.0611  XYZ=            -22.9361
 Hexadecapole moment (field-independent basis, Debye-Ang**3):
 XXXX=         -20372.0419 YYYY=          -2949.4685 ZZZZ=          -1918.3662 XXXY=          -2397.7331
 XXXZ=          -2039.4473 YYYX=          -2610.0277 YYYZ=           -159.6958 ZZZX=          -2402.6363
 ZZZY=           -128.3875 XXYY=          -3921.1741 XXZZ=          -3852.6564 YYZZ=           -820.1911
 XXYZ=           -143.6482 YYXZ=           -861.8370 ZZXY=           -983.9218
 N-N= 1.368887765432D+03 E-N=-4.497493266978D+03  KE= 7.485285439580D+02
 Merz-Kollman atomic radii used.

 **********************************************************************

            Electrostatic Properties Using The SCF Density

 **********************************************************************

       Atomic Center    1 is at   8.958171  2.500017  1.585823
       Atomic Center    2 is at   8.533094  3.479073  0.755194
       Atomic Center    3 is at   8.052693  1.489941  2.030899
       Atomic Center    4 is at   9.984622  2.462628  1.927074
       Atomic Center    5 is at   7.185154  3.509810  0.320178
       Atomic Center    6 is at   9.212210  4.249123  0.412385
       Atomic Center    7 is at   8.493981  0.453222  2.907655
       Atomic Center    8 is at   6.711101  1.516483  1.600875
       Atomic Center    9 is at   6.278030  2.567122  0.716596
       Atomic Center   10 is at   6.893125  4.310524 -0.342168
       Atomic Center   11 is at   7.630583 -0.500421  3.325187
       Atomic Center   12 is at   9.528155  0.449839  3.226913
       Atomic Center   13 is at   5.807489  0.492239  2.056629
       Atomic Center   14 is at   4.851440  2.595252  0.259234
       Atomic Center   15 is at   6.280802 -0.477816  2.895446
       Atomic Center   16 is at   7.955900 -1.290407  3.989854
       Atomic Center   17 is at   4.380906  0.520430  1.599373
       Atomic Center   18 is at   4.378101  3.565152 -0.579777
       Atomic Center   19 is at   3.947824  1.571024  0.715065
       Atomic Center   20 is at   5.629746 -1.259965  3.255342
       Atomic Center   21 is at   3.473854 -0.422299  1.995832
       Atomic Center   22 is at   3.028322  3.587662 -1.009554
       Atomic Center   23 is at   5.029112  4.347242 -0.939836
       Atomic Center   24 is at   2.606254  1.597450  0.284981
       Atomic Center   25 is at   2.125925 -0.391643  1.560813
       Atomic Center   26 is at   3.765980 -1.223014  2.658155
       Atomic Center   27 is at   2.164948  2.634062 -0.591904
       Atomic Center   28 is at   2.703016  4.377501 -1.674403
       Atomic Center   29 is at   1.700815  0.587368  0.730125
       Atomic Center   30 is at   1.446857 -1.161741  1.903612
       Atomic Center   31 is at   1.130800  2.637329 -0.911236
       Atomic Center   32 is at   0.674373  0.624672  0.388843
    1299 points will be used for fitting atomic charges
 Fitting point charges to electrostatic potential
 Charges from ESP fit, RMS=   0.00066 RRMS=   0.11413:
 ESP charges:
               1
     1  C   -0.195196
     2  C   -0.025341
     3  C    0.201785
     4  H    0.090365
     5  C   -0.132922
     6  H    0.062472
     7  C   -0.207555
     8  C   -0.029015
     9  C    0.037904
    10  H    0.080924
    11  C   -0.016328
    12  H    0.093959
    13  C    0.042802
    14  C    0.022581
    15  C   -0.138567
    16  H    0.061216
    17  C    0.009889
    18  C   -0.133028
    19  C    0.000470
    20  H    0.081972
    21  C   -0.121274
    22  C   -0.020500
    23  H    0.080604
    24  C    0.183237
    25  C   -0.029830
    26  H    0.079765
    27  C   -0.194692
    28  H    0.060964
    29  C   -0.191147
    30  H    0.062630
    31  H    0.090604
    32  H    0.091250
 Sum of ESP charges =   0.00000
 ESP charges with hydrogens summed into heavy atoms:
               1
     1  C   -0.104831
     2  C    0.037131
     3  C    0.201785
     5  C   -0.051998
     7  C   -0.113596
     8  C   -0.029015
     9  C    0.037904
    11  C    0.044888
    13  C    0.042802
    14  C    0.022581
    15  C   -0.056596
    17  C    0.009889
    18  C   -0.052424
    19  C    0.000470
    21  C   -0.041508
    22  C    0.040464
    24  C    0.183237
    25  C    0.032800
    27  C   -0.104088
    29  C   -0.099896
 Charge=   0.00000 Dipole=    -0.0002    -0.0022     0.0012 Tot=     0.0025
 -----------------------------------------------------------------

              Electrostatic Properties (Atomic Units)

 -----------------------------------------------------------------
    Center     Electric         -------- Electric Field --------
               Potential          X             Y             Z
 -----------------------------------------------------------------
    1 Atom    -14.555421
    2 Atom    -14.553609
    3 Atom    -14.542945
    4 Atom     -1.143191
    5 Atom    -14.556318
    6 Atom     -1.142928
    7 Atom    -14.555422
    8 Atom    -14.543675
    9 Atom    -14.541284
   10 Atom     -1.143607
   11 Atom    -14.553610
   12 Atom     -1.143192
   13 Atom    -14.541289
   14 Atom    -14.541283
   15 Atom    -14.556321
   16 Atom     -1.142930
   17 Atom    -14.541289
   18 Atom    -14.556317
   19 Atom    -14.543674
   20 Atom     -1.143606
   21 Atom    -14.556320
   22 Atom    -14.553608
   23 Atom     -1.143606
   24 Atom    -14.542944
   25 Atom    -14.553609
   26 Atom     -1.143605
   27 Atom    -14.555421
   28 Atom     -1.142928
   29 Atom    -14.555422
   30 Atom     -1.142929
   31 Atom     -1.143191
   32 Atom     -1.143192
 -----------------------------------------------------------------
 1\1\GINC-NXV42\FOpt\RHF\STO-3G\C20H12\BTX156\10-Sep-2018\0\\#hf STO-3G
  Pop=ESP symmetry=none opt\\relax\\0,1\C,8.9581705131,2.5000170486,1.5
 858230981\C,8.5330942282,3.4790733787,0.7551937824\C,8.0526929752,1.48
 9941375,2.0308992709\H,9.9846219322,2.4626283081,1.9270735797\C,7.1851
 542154,3.5098098802,0.3201779475\H,9.21221029,4.2491228337,0.412385481
 4\C,8.4939812286,0.4532217882,2.9076554398\C,6.7111011827,1.5164826391
 ,1.6008751337\C,6.2780302134,2.5671215006,0.7165956459\H,6.8931251031,
 4.310523572,-0.3421677496\C,7.6305829462,-0.5004206476,3.3251870394\H,
 9.5281551756,0.4498391762,3.2269133216\C,5.8074885099,0.4922388804,2.0
 566288899\C,4.8514402598,2.5952518475,0.2592344309\C,6.2808021332,-0.4
 778157061,2.8954459293\H,7.9559002051,-1.2904068128,3.9898536101\C,4.3
 8090597,0.5204303186,1.5993733148\C,4.3781007487,3.5651517372,-0.57977
 68782\C,3.9478244205,1.5710242206,0.7150649418\H,5.6297456943,-1.25996
 45641,3.2553423874\C,3.4738542105,-0.4222992898,1.9958315084\C,3.02832
 22936,3.5876615606,-1.0095542405\H,5.0291120576,4.3472423032,-0.939835
 7353\C,2.6062537419,1.5974499821,0.2849813843\C,2.1259245081,-0.391643
 1209,1.5608132555\H,3.765979878,-1.2230136011,2.6581552478\C,2.1649482
 325,2.6340618776,-0.5919042069\H,2.7030162637,4.3775011903,-1.67440319
 12\C,1.700814529,0.5873676196,0.7301246357\H,1.4468573784,-1.161740714
 9,1.9036115565\H,1.1307999005,2.6373290798,-0.9112357033\H,0.674373061
 ,0.6246723394,0.3888428722\\Version=ES64L-G09RevD.01\HF=-755.1125228\R
 MSD=6.237e-09\RMSF=4.733e-06\Dipole=0.0000143,-0.0000447,-0.0000597\Qu
 adrupole=2.2850082,0.2101514,-2.4951596,1.2084389,1.6120675,-3.9294005
 \PG=Unknown\\@


 LAW OF COMPENSATION:
      NO CALCULATION IS EVER A COMPLETE FAILURE; IT 
      CAN ALWAYS SERVE AS A BAD EXAMPLE.

                                           -- ANON
 Job cpu time:       0 days  0 hours  1 minutes 19.2 seconds.
 File lengths (MBytes):  RWF=     10 Int=      0 D2E=      0 Chk=      8 Scr=      1
 Normal termination of Gaussian 09 at Mon Sep 10 13:44:30 2018.
