      -----------------------------------------------------------      
     |                   =====================                   |     
     |                           x T B                           |     
     |                   =====================                   |     
     |                         S. Grimme                         |     
     |          Mulliken Center for Theoretical Chemistry        |     
     |                    University of Bonn                     |     
      -----------------------------------------------------------      

   * xtb version 6.3.3 (5b13467) compiled by 'ehlert@majestix' on 2020-09-17

   xtb is free software: you can redistribute it and/or modify it under
   the terms of the GNU Lesser General Public License as published by
   the Free Software Foundation, either version 3 of the License, or
   (at your option) any later version.
   
   xtb is distributed in the hope that it will be useful,
   but WITHOUT ANY WARRANTY; without even the implied warranty of
   MERCHANTABILITY or FITNESS FOR A PARTICULAR PURPOSE.  See the
   GNU Lesser General Public License for more details.
   
   Cite this work as:
   * C. Bannwarth, E. Caldeweyher, S. Ehlert, A. Hansen, P. Pracht,
     J. Seibert, S. Spicher, S. Grimme, WIREs Comput. Mol. Sci., 2020,
     e01493. DOI: 10.1002/wcms.1493
   
   for GFN2-xTB:
   * S. Grimme, C. Bannwarth, P. Shushkov, J. Chem. Theory Comput., 2017,
     13, 1989-2009. DOI: 10.1021/acs.jctc.7b00118
   for GFN1-xTB:
   * C. Bannwarth, S. Ehlert and S. Grimme., J. Chem. Theory Comput., 2019,
     15, 1652-1671. DOI: 10.1021/acs.jctc.8b01176
   for GFN0-xTB:
   * P. Pracht, E. Caldeweyher, S. Ehlert, S. Grimme, ChemRxiv, 2019, preprint.
     DOI: 10.26434/chemrxiv.8326202.v1
   for GFN-FF:
   * S. Spicher and S. Grimme, Angew. Chem. Int. Ed., 2020, 59, 15665-15673.
     DOI: 10.1002/anie.202004239
   
   for DFT-D4:
   * E. Caldeweyher, C. Bannwarth and S. Grimme, J. Chem. Phys., 2017,
     147, 034112. DOI: 10.1063/1.4993215
   * E. Caldeweyher, S. Ehlert, A. Hansen, H. Neugebauer, S. Spicher,
     C. Bannwarth and S. Grimme, J. Chem. Phys., 2019, 150, 154122.
     DOI: 10.1063/1.5090222
   * E. Caldeweyher, J.-M. Mewes, S. Ehlert and S. Grimme, Phys. Chem. Chem. Phys.
     2020, 22, 8499-8512. DOI: 10.1039/D0CP00502A
   
   for sTDA-xTB:
   * S. Grimme and C. Bannwarth, J. Chem. Phys., 2016, 145, 054103.
     DOI: 10.1063/1.4959605
   
   in the mass-spec context:
   * V. Asgeirsson, C. Bauer and S. Grimme, Chem. Sci., 2017, 8, 4879.
     DOI: 10.1039/c7sc00601b
   * J. Koopman and S. Grimme, ACS Omega 2019, 4, 12, 15120-15133.
     DOI: 10.1021/acsomega.9b02011
   
   for metadynamics refer to:
   * S. Grimme, J. Chem. Theory Comput., 2019, 155, 2847-2862
     DOI: 10.1021/acs.jctc.9b00143
   
   with help from (in alphabetical order)
   C. Bannwarth, F. Bohle, G. Brandenburg, E. Caldeweyher, M. Checinski,
   S. Dohm, S. Ehlert, S. Ehrlich, F. März, H. Neugebauer, J. Pisarek,
   P. Pracht, P. Shushkov, and S. Spicher.
   
 * started run on 2022/02/23 at 16:26:50.563     

           -------------------------------------------------
          |                Calculation Setup                |
           -------------------------------------------------

          program call               : xtb --input xtb.input coord --grad
          hostname                   : login-01
          coordinate file            : coord
          omp threads                :                     1
          number of atoms            :                    15
          number of electrons        :                    36
          charge                     :                     0
          spin                       :                   0.0
          first test random number   :      0.68648829280934

   ID    Z sym.   atoms
    1    6 C      1-4, 6, 8, 10
    2    1 H      5, 7, 9, 11-15

           -------------------------------------------------
          |                 G F N 2 - x T B                 |
           -------------------------------------------------

        Reference                      10.1021/acs.jctc.8b01176
      * Hamiltonian:
        H0-scaling (s, p, d)           1.850000    2.230000    2.230000
        zeta-weighting                 0.500000
      * Dispersion:
        s8                             2.700000
        a1                             0.520000
        a2                             5.000000
        s9                             5.000000
      * Repulsion:
        kExp                           1.500000    1.000000
        rExp                           1.000000
      * Coulomb:
        alpha                          2.000000
        third order                    shell-resolved
        anisotropic                    true
        a3                             3.000000
        a5                             4.000000
        cn-shift                       1.200000
        cn-exp                         4.000000
        max-rad                        5.000000

q/qsh data taken from xtbrestart
CAMM data taken from xtbrestart

          ...................................................
          :                      SETUP                      :
          :.................................................:
          :  # basis functions                  36          :
          :  # atomic orbitals                  36          :
          :  # shells                           22          :
          :  # electrons                        36          :
          :  max. iterations                   250          :
          :  Hamiltonian                  GFN2-xTB          :
          :  restarted?                       true          :
          :  GBSA solvation                  false          :
          :  PC potential                     true          :
          :  -> # point charges                300          :
          :  -> sum of PC               -1.2966800     e    :
          :  electronic temp.          300.0000000     K    :
          :  accuracy                    1.0000000          :
          :  -> integral cutoff          0.2500000E+02      :
          :  -> integral neglect         0.1000000E-07      :
          :  -> SCF convergence          0.1000000E-05 Eh   :
          :  -> wf. convergence          0.1000000E-03 e    :
          :  Broyden damping             0.4000000          :
          ...................................................

 iter      E             dE          RMSdq      gap      omega  full diag
   1    -18.9724320 -0.189724E+02  0.215E-01    1.89       0.0  T
   2    -18.9722318  0.200262E-03  0.162E-01    1.89       1.0  T
   3    -18.9720211  0.210618E-03  0.210E-01    1.89       1.0  T
   4    -18.9724961 -0.474966E-03  0.332E-02    1.89       1.0  T
   5    -18.9724773  0.187844E-04  0.428E-02    1.89       1.0  T
   6    -18.9725104 -0.330793E-04  0.930E-03    1.89       2.8  T
   7    -18.9725110 -0.644233E-06  0.236E-03    1.89      10.9  T
   8    -18.9725111 -0.493050E-07  0.651E-04    1.89      39.6  T
   9    -18.9725111 -0.110785E-08  0.234E-04    1.89     110.4  T

   *** convergence criteria satisfied after 9 iterations ***

         #    Occupation            Energy/Eh            Energy/eV
      -------------------------------------------------------------
         1        2.0000           -0.5287738             -14.3887
       ...           ...                  ...                  ...
        12        2.0000           -0.3427305              -9.3262
        13        2.0000           -0.3292002              -8.9580
        14        2.0000           -0.3236022              -8.8057
        15        2.0000           -0.3187443              -8.6735
        16        2.0000           -0.3132948              -8.5252
        17        2.0000           -0.2577656              -7.0142
        18        2.0000           -0.2307486              -6.2790 (HOMO)
        19                         -0.1611903              -4.3862 (LUMO)
        20                         -0.1332927              -3.6271
        21                         -0.0057709              -0.1570
        22                          0.0592862               1.6133
        23                          0.1052696               2.8645
       ...                                ...                  ...
        36                          0.4729930              12.8708
      -------------------------------------------------------------
                  HL-Gap            0.0695584 Eh            1.8928 eV
             Fermi-level           -0.1959694 Eh           -5.3326 eV

 SCC (total)                   0 d,  0 h,  0 min,  0.024 sec
 SCC setup                      ...        0 min,  0.000 sec (  1.784%)
 Dispersion                     ...        0 min,  0.000 sec (  0.779%)
 classical contributions        ...        0 min,  0.000 sec (  1.030%)
 integral evaluation            ...        0 min,  0.006 sec ( 25.526%)
 iterations                     ...        0 min,  0.008 sec ( 34.329%)
 molecular gradient             ...        0 min,  0.008 sec ( 35.547%)
 printout                       ...        0 min,  0.000 sec (  0.882%)

         :::::::::::::::::::::::::::::::::::::::::::::::::::::
         ::                     SUMMARY                     ::
         :::::::::::::::::::::::::::::::::::::::::::::::::::::
         :: total energy             -18.808680697312 Eh    ::
         :: gradient norm              0.303796871966 Eh/a0 ::
         :: HOMO-LUMO gap              1.892779612348 eV    ::
         ::.................................................::
         :: SCC energy               -18.972511088083 Eh    ::
         :: -> isotropic ES            0.000780071990 Eh    ::
         :: -> anisotropic ES          0.006488828693 Eh    ::
         :: -> anisotropic XC          0.020851959919 Eh    ::
         :: -> dispersion             -0.010843481496 Eh    ::
         :: repulsion energy           0.163804848463 Eh    ::
         :: add. restraining           0.000000000000 Eh    ::
         :: total charge               0.000000000000 e     ::
         :::::::::::::::::::::::::::::::::::::::::::::::::::::

           -------------------------------------------------
          |                Property Printout                |
           -------------------------------------------------

    * Orbital Energies and Occupations

         #    Occupation            Energy/Eh            Energy/eV
      -------------------------------------------------------------
         1        2.0000           -0.5287738             -14.3887
       ...           ...                  ...                  ...
         6        2.0000           -0.4255725             -11.5804
         7        2.0000           -0.4104281             -11.1683
         8        2.0000           -0.4036197             -10.9831
         9        2.0000           -0.3875749             -10.5465
        10        2.0000           -0.3604369              -9.8080
        11        2.0000           -0.3557381              -9.6801
        12        2.0000           -0.3427305              -9.3262
        13        2.0000           -0.3292002              -8.9580
        14        2.0000           -0.3236022              -8.8057
        15        2.0000           -0.3187443              -8.6735
        16        2.0000           -0.3132948              -8.5252
        17        2.0000           -0.2577656              -7.0142
        18        2.0000           -0.2307486              -6.2790 (HOMO)
        19                         -0.1611903              -4.3862 (LUMO)
        20                         -0.1332927              -3.6271
        21                         -0.0057709              -0.1570
        22                          0.0592862               1.6133
        23                          0.1052696               2.8645
        24                          0.1072919               2.9196
        25                          0.1127405               3.0678
        26                          0.1459737               3.9721
        27                          0.1935071               5.2656
        28                          0.2026417               5.5142
        29                          0.2154708               5.8633
       ...                                ...                  ...
        36                          0.4729930              12.8708
      -------------------------------------------------------------
                  HL-Gap            0.0695584 Eh            1.8928 eV
             Fermi-level           -0.1959694 Eh           -5.3326 eV

     #   Z          covCN         q      C6AA      α(0)
     1   6 C        3.787     0.022    20.220     6.405
     2   6 C        2.642    -0.044    29.065     8.819
     3   6 C        2.917    -0.046    29.149     8.853
     4   6 C        3.832    -0.041    21.289     6.565
     5   1 H        0.819     0.021     2.760     2.607
     6   6 C        2.883    -0.060    29.498     8.904
     7   1 H        0.653     0.020     3.056     2.808
     8   6 C        2.893    -0.064    29.582     8.917
     9   1 H        0.913     0.046     2.375     2.411
    10   6 C        3.895     0.009    20.381     6.418
    11   1 H        0.888     0.024     2.683     2.564
    12   1 H        0.918     0.021     2.724     2.581
    13   1 H        0.912     0.025     2.654     2.548
    14   1 H        0.920     0.034     2.534     2.490
    15   1 H        0.909     0.035     2.526     2.486

 Mol. C6AA /au·bohr⁶  :       2329.954256
 Mol. C8AA /au·bohr⁸  :      55136.766990
 Mol. α(0) /au        :         75.377152


Wiberg/Mayer (AO) data.
largest (>0.10) Wiberg bond orders for each atom

 ---------------------------------------------------------------------------
     #   Z sym  total        # sym  WBO       # sym  WBO       # sym  WBO
 ---------------------------------------------------------------------------
     1   6 C    3.978 --     3 C    1.008     2 C    0.990     4 C    0.960
                             5 H    0.951
     2   6 C    3.932 --     6 C    1.846     1 C    0.990     7 H    0.949
     3   6 C    3.959 --     8 C    1.850     1 C    1.008     9 H    0.967
     4   6 C    3.982 --    12 H    0.975    10 C    0.970    11 H    0.968
                             1 C    0.960
     5   1 H    1.000 --     1 C    0.951
     6   6 C    3.957 --     2 C    1.846    10 C    1.007    13 H    0.969
     7   1 H    1.000 --     2 C    0.949
     8   6 C    3.964 --     3 C    1.850    10 C    1.001    14 H    0.972
     9   1 H    0.998 --     3 C    0.967
    10   6 C    3.988 --     6 C    1.007     8 C    1.001     4 C    0.970
                            15 H    0.960
    11   1 H    0.999 --     4 C    0.968
    12   1 H    1.000 --     4 C    0.975
    13   1 H    0.999 --     6 C    0.969
    14   1 H    0.999 --     8 C    0.972
    15   1 H    0.999 --    10 C    0.960
 ---------------------------------------------------------------------------

Topologies differ in total number of bonds
Writing topology from bond orders to xtbtopo.mol

molecular dipole:
                 x           y           z       tot (Debye)
 q only:       -0.067      -0.152      -0.131
   full:       -0.032      -0.201      -0.206       0.736
molecular quadrupole (traceless):
                xx          xy          yy          xz          yz          zz
 q only:        0.123       0.254      -0.053      -0.503      -0.617      -0.070
  q+dip:       -0.118       1.482       0.136      -0.544      -2.906      -0.018
   full:        0.036       0.832       0.005      -0.459      -1.524      -0.041


           -------------------------------------------------
          | TOTAL ENERGY              -18.808680697312 Eh   |
          | GRADIENT NORM               0.303796871966 Eh/α |
          | HOMO-LUMO GAP               1.892779612348 eV   |
           -------------------------------------------------

------------------------------------------------------------------------
 * finished run on 2022/02/23 at 16:26:50.624     
------------------------------------------------------------------------
 total:
 * wall-time:     0 d,  0 h,  0 min,  0.061 sec
 *  cpu-time:     0 d,  0 h,  0 min,  0.046 sec
 * ratio c/w:     0.746 speedup
 SCF:
 * wall-time:     0 d,  0 h,  0 min,  0.027 sec
 *  cpu-time:     0 d,  0 h,  0 min,  0.026 sec
 * ratio c/w:     0.966 speedup

